<?xml version="1.0" ?> 
<!-- 
# vtk DataFile Version 3.0
-->
<VTKFile type="UnstructuredGrid" version="0.1" compressor="vtkZLibDataCompressor" byte_order="LittleEndian">
  <UnstructuredGrid>
    <FieldData>
      <DataArray type="Float64" Name="TIME" NumberOfTuples="1" format="ascii">
0.000000000000000e+00 
      </DataArray>
      <DataArray type="Float64" Name="tangent_stiffness_tensor_cmat" NumberOfTuples="1" NumberOfComponents="36" format="ascii">
1.111111111111111e+01 2.777777777777778e+00 2.777777777777778e+00 8.972512494943178e-17 -1.040834085586085e-16 -3.331065136104369e-16 2.777777777777779e+00 1.111111111111111e+01 2.777777777777778e+00 -1.392583738795068e-16 2.788067666747507e-16 -3.425731212290478e-17 2.777777777777779e+00 2.777777777777778e+00 1.111111111111112e+01 4.012324069259488e-17 -1.063018449921005e-16 -1.145313556373591e-16 -1.088883665722304e-17 4.809176152598844e-17 3.713972334999977e-17 4.166666666666666e+00 -7.800832890996067e-17 3.092723838794385e-17 -5.821310668856484e-17 -9.242405718428606e-17 -1.826296779350800e-16 -1.387592556692072e-16 4.166666666666667e+00 -8.813082366231026e-17 -3.747398770338802e-16 1.644291672425414e-17 -2.741259154272254e-16 1.986022322300169e-16 -8.405488282843834e-17 4.166666666666668e+00 
      </DataArray>
    </FieldData>

    <Piece NumberOfPoints="216" NumberOfCells="27" >
      <Points>
        <DataArray type="Float64" NumberOfComponents="3" format="ascii">
-1.666666666665666e-01 1.666666666666666e-01 -1.666666666666168e-01
-1.666666666665992e-01 5.000000000000000e-01 -1.666666666665994e-01
-1.666666666666666e-01 5.000000000000000e-01 -5.000000000000000e-01
-1.666666666666667e-01 1.666666666666667e-01 -5.000000000000000e-01
-5.000000000000000e-01 1.666666666666667e-01 -1.666666666664732e-01
-5.000000000000000e-01 5.000000000000000e-01 -1.666666666666667e-01
-5.000000000000000e-01 5.000000000000000e-01 -5.000000000000000e-01
-5.000000000000000e-01 1.666666666666667e-01 -5.000000000000000e-01
-1.666666666665060e-01 -1.666666666666665e-01 -1.666666666666491e-01
-1.666666666665666e-01 1.666666666666666e-01 -1.666666666666168e-01
-1.666666666666667e-01 1.666666666666667e-01 -5.000000000000000e-01
-1.666666666666667e-01 -1.666666666666664e-01 -5.000000000000000e-01
-5.000000000000000e-01 -1.666666666665992e-01 -1.666666666665994e-01
-5.000000000000000e-01 1.666666666666667e-01 -1.666666666664732e-01
-5.000000000000000e-01 1.666666666666667e-01 -5.000000000000000e-01
-5.000000000000000e-01 -1.666666666666666e-01 -5.000000000000000e-01
-1.666666666664732e-01 -5.000000000000000e-01 -1.666666666666665e-01
-1.666666666665060e-01 -1.666666666666665e-01 -1.666666666666491e-01
-1.666666666666667e-01 -1.666666666666664e-01 -5.000000000000000e-01
-1.666666666666667e-01 -5.000000000000000e-01 -5.000000000000000e-01
-5.000000000000000e-01 -5.000000000000000e-01 -1.666666666666667e-01
-5.000000000000000e-01 -1.666666666665992e-01 -1.666666666665994e-01
-5.000000000000000e-01 -1.666666666666666e-01 -5.000000000000000e-01
-5.000000000000000e-01 -5.000000000000000e-01 -5.000000000000000e-01
-1.666666666665058e-01 1.666666666666665e-01 1.666666666669104e-01
-1.666666666664732e-01 5.000000000000000e-01 1.666666666669280e-01
-1.666666666665992e-01 5.000000000000000e-01 -1.666666666665994e-01
-1.666666666665666e-01 1.666666666666666e-01 -1.666666666666168e-01
-5.000000000000000e-01 1.666666666666667e-01 1.666666666669281e-01
-5.000000000000000e-01 5.000000000000000e-01 1.666666666666666e-01
-5.000000000000000e-01 5.000000000000000e-01 -1.666666666666667e-01
-5.000000000000000e-01 1.666666666666667e-01 -1.666666666664732e-01
-1.666666666665663e-01 -1.666666666666666e-01 1.666666666668778e-01
-1.666666666665058e-01 1.666666666666665e-01 1.666666666669104e-01
-1.666666666665666e-01 1.666666666666666e-01 -1.666666666666168e-01
-1.666666666665060e-01 -1.666666666666665e-01 -1.666666666666491e-01
-5.000000000000000e-01 -1.666666666664732e-01 1.666666666669280e-01
-5.000000000000000e-01 1.666666666666667e-01 1.666666666669281e-01
-5.000000000000000e-01 1.666666666666667e-01 -1.666666666664732e-01
-5.000000000000000e-01 -1.666666666665992e-01 -1.666666666665994e-01
-1.666666666665989e-01 -5.000000000000000e-01 1.666666666668602e-01
-1.666666666665663e-01 -1.666666666666666e-01 1.666666666668778e-01
-1.666666666665060e-01 -1.666666666666665e-01 -1.666666666666491e-01
-1.666666666664732e-01 -5.000000000000000e-01 -1.666666666666665e-01
-5.000000000000000e-01 -5.000000000000000e-01 1.666666666666666e-01
-5.000000000000000e-01 -1.666666666664732e-01 1.666666666669280e-01
-5.000000000000000e-01 -1.666666666665992e-01 -1.666666666665994e-01
-5.000000000000000e-01 -5.000000000000000e-01 -1.666666666666667e-01
-1.666666666666667e-01 1.666666666666664e-01 5.000000000000000e-01
-1.666666666666666e-01 5.000000000000000e-01 5.000000000000000e-01
-1.666666666664732e-01 5.000000000000000e-01 1.666666666669280e-01
-1.666666666665058e-01 1.666666666666665e-01 1.666666666669104e-01
-5.000000000000000e-01 1.666666666666667e-01 5.000000000000000e-01
-5.000000000000000e-01 5.000000000000000e-01 5.000000000000000e-01
-5.000000000000000e-01 5.000000000000000e-01 1.666666666666666e-01
-5.000000000000000e-01 1.666666666666667e-01 1.666666666669281e-01
-1.666666666666667e-01 -1.666666666666667e-01 5.000000000000000e-01
-1.666666666666667e-01 1.666666666666664e-01 5.000000000000000e-01
-1.666666666665058e-01 1.666666666666665e-01 1.666666666669104e-01
-1.666666666665663e-01 -1.666666666666666e-01 1.666666666668778e-01
-5.000000000000000e-01 -1.666666666666666e-01 5.000000000000000e-01
-5.000000000000000e-01 1.666666666666667e-01 5.000000000000000e-01
-5.000000000000000e-01 1.666666666666667e-01 1.666666666669281e-01
-5.000000000000000e-01 -1.666666666664732e-01 1.666666666669280e-01
-1.666666666666667e-01 -5.000000000000000e-01 5.000000000000000e-01
-1.666666666666667e-01 -1.666666666666667e-01 5.000000000000000e-01
-1.666666666665663e-01 -1.666666666666666e-01 1.666666666668778e-01
-1.666666666665989e-01 -5.000000000000000e-01 1.666666666668602e-01
-5.000000000000000e-01 -5.000000000000000e-01 5.000000000000000e-01
-5.000000000000000e-01 -1.666666666666666e-01 5.000000000000000e-01
-5.000000000000000e-01 -1.666666666664732e-01 1.666666666669280e-01
-5.000000000000000e-01 -5.000000000000000e-01 1.666666666666666e-01
1.666666666666665e-01 1.666666666666666e-01 -1.666666666665234e-01
1.666666666666667e-01 5.000000000000000e-01 -1.666666666664732e-01
1.666666666666667e-01 5.000000000000000e-01 -5.000000000000000e-01
1.666666666666665e-01 1.666666666666667e-01 -5.000000000000000e-01
-1.666666666665666e-01 1.666666666666666e-01 -1.666666666666168e-01
-1.666666666665992e-01 5.000000000000000e-01 -1.666666666665994e-01
-1.666666666666666e-01 5.000000000000000e-01 -5.000000000000000e-01
-1.666666666666667e-01 1.666666666666667e-01 -5.000000000000000e-01
1.666666666666664e-01 -1.666666666666665e-01 -1.666666666666166e-01
1.666666666666665e-01 1.666666666666666e-01 -1.666666666665234e-01
1.666666666666665e-01 1.666666666666667e-01 -5.000000000000000e-01
1.666666666666665e-01 -1.666666666666664e-01 -5.000000000000000e-01
-1.666666666665060e-01 -1.666666666666665e-01 -1.666666666666491e-01
-1.666666666665666e-01 1.666666666666666e-01 -1.666666666666168e-01
-1.666666666666667e-01 1.666666666666667e-01 -5.000000000000000e-01
-1.666666666666667e-01 -1.666666666666664e-01 -5.000000000000000e-01
1.666666666666664e-01 -5.000000000000000e-01 -1.666666666666667e-01
1.666666666666664e-01 -1.666666666666665e-01 -1.666666666666166e-01
1.666666666666665e-01 -1.666666666666664e-01 -5.000000000000000e-01
1.666666666666666e-01 -5.000000000000000e-01 -5.000000000000000e-01
-1.666666666664732e-01 -5.000000000000000e-01 -1.666666666666665e-01
-1.666666666665060e-01 -1.666666666666665e-01 -1.666666666666491e-01
-1.666666666666667e-01 -1.666666666666664e-01 -5.000000000000000e-01
-1.666666666666667e-01 -5.000000000000000e-01 -5.000000000000000e-01
1.666666666666665e-01 1.666666666666665e-01 1.666666666668779e-01
1.666666666666667e-01 5.000000000000000e-01 1.666666666669281e-01
1.666666666666667e-01 5.000000000000000e-01 -1.666666666664732e-01
1.666666666666665e-01 1.666666666666666e-01 -1.666666666665234e-01
-1.666666666665058e-01 1.666666666666665e-01 1.666666666669104e-01
-1.666666666664732e-01 5.000000000000000e-01 1.666666666669280e-01
-1.666666666665992e-01 5.000000000000000e-01 -1.666666666665994e-01
-1.666666666665666e-01 1.666666666666666e-01 -1.666666666666168e-01
1.666666666666665e-01 -1.666666666666666e-01 1.666666666667846e-01
1.666666666666665e-01 1.666666666666665e-01 1.666666666668779e-01
1.666666666666665e-01 1.666666666666666e-01 -1.666666666665234e-01
1.666666666666664e-01 -1.666666666666665e-01 -1.666666666666166e-01
-1.666666666665663e-01 -1.666666666666666e-01 1.666666666668778e-01
-1.666666666665058e-01 1.666666666666665e-01 1.666666666669104e-01
-1.666666666665666e-01 1.666666666666666e-01 -1.666666666666168e-01
-1.666666666665060e-01 -1.666666666666665e-01 -1.666666666666491e-01
1.666666666666667e-01 -5.000000000000000e-01 1.666666666667344e-01
1.666666666666665e-01 -1.666666666666666e-01 1.666666666667846e-01
1.666666666666664e-01 -1.666666666666665e-01 -1.666666666666166e-01
1.666666666666664e-01 -5.000000000000000e-01 -1.666666666666667e-01
-1.666666666665989e-01 -5.000000000000000e-01 1.666666666668602e-01
-1.666666666665663e-01 -1.666666666666666e-01 1.666666666668778e-01
-1.666666666665060e-01 -1.666666666666665e-01 -1.666666666666491e-01
-1.666666666664732e-01 -5.000000000000000e-01 -1.666666666666665e-01
1.666666666666665e-01 1.666666666666664e-01 5.000000000000000e-01
1.666666666666667e-01 5.000000000000000e-01 5.000000000000000e-01
1.666666666666667e-01 5.000000000000000e-01 1.666666666669281e-01
1.666666666666665e-01 1.666666666666665e-01 1.666666666668779e-01
-1.666666666666667e-01 1.666666666666664e-01 5.000000000000000e-01
-1.666666666666666e-01 5.000000000000000e-01 5.000000000000000e-01
-1.666666666664732e-01 5.000000000000000e-01 1.666666666669280e-01
-1.666666666665058e-01 1.666666666666665e-01 1.666666666669104e-01
1.666666666666665e-01 -1.666666666666667e-01 5.000000000000000e-01
1.666666666666665e-01 1.666666666666664e-01 5.000000000000000e-01
1.666666666666665e-01 1.666666666666665e-01 1.666666666668779e-01
1.666666666666665e-01 -1.666666666666666e-01 1.666666666667846e-01
-1.666666666666667e-01 -1.666666666666667e-01 5.000000000000000e-01
-1.666666666666667e-01 1.666666666666664e-01 5.000000000000000e-01
-1.666666666665058e-01 1.666666666666665e-01 1.666666666669104e-01
-1.666666666665663e-01 -1.666666666666666e-01 1.666666666668778e-01
1.666666666666666e-01 -5.000000000000000e-01 5.000000000000000e-01
1.666666666666665e-01 -1.666666666666667e-01 5.000000000000000e-01
1.666666666666665e-01 -1.666666666666666e-01 1.666666666667846e-01
1.666666666666667e-01 -5.000000000000000e-01 1.666666666667344e-01
-1.666666666666667e-01 -5.000000000000000e-01 5.000000000000000e-01
-1.666666666666667e-01 -1.666666666666667e-01 5.000000000000000e-01
-1.666666666665663e-01 -1.666666666666666e-01 1.666666666668778e-01
-1.666666666665989e-01 -5.000000000000000e-01 1.666666666668602e-01
5.000000000000000e-01 1.666666666666664e-01 -1.666666666666667e-01
5.000000000000000e-01 5.000000000000000e-01 -1.666666666666667e-01
5.000000000000000e-01 5.000000000000000e-01 -5.000000000000000e-01
5.000000000000000e-01 1.666666666666666e-01 -5.000000000000000e-01
1.666666666666665e-01 1.666666666666666e-01 -1.666666666665234e-01
1.666666666666667e-01 5.000000000000000e-01 -1.666666666664732e-01
1.666666666666667e-01 5.000000000000000e-01 -5.000000000000000e-01
1.666666666666665e-01 1.666666666666667e-01 -5.000000000000000e-01
5.000000000000000e-01 -1.666666666664732e-01 -1.666666666666665e-01
5.000000000000000e-01 1.666666666666664e-01 -1.666666666666667e-01
5.000000000000000e-01 1.666666666666666e-01 -5.000000000000000e-01
5.000000000000000e-01 -1.666666666666667e-01 -5.000000000000000e-01
1.666666666666664e-01 -1.666666666666665e-01 -1.666666666666166e-01
1.666666666666665e-01 1.666666666666666e-01 -1.666666666665234e-01
1.666666666666665e-01 1.666666666666667e-01 -5.000000000000000e-01
1.666666666666665e-01 -1.666666666666664e-01 -5.000000000000000e-01
5.000000000000000e-01 -5.000000000000000e-01 -1.666666666666667e-01
5.000000000000000e-01 -1.666666666664732e-01 -1.666666666666665e-01
5.000000000000000e-01 -1.666666666666667e-01 -5.000000000000000e-01
5.000000000000000e-01 -5.000000000000000e-01 -5.000000000000000e-01
1.666666666666664e-01 -5.000000000000000e-01 -1.666666666666667e-01
1.666666666666664e-01 -1.666666666666665e-01 -1.666666666666166e-01
1.666666666666665e-01 -1.666666666666664e-01 -5.000000000000000e-01
1.666666666666666e-01 -5.000000000000000e-01 -5.000000000000000e-01
5.000000000000000e-01 1.666666666666667e-01 1.666666666667344e-01
5.000000000000000e-01 5.000000000000000e-01 1.666666666666666e-01
5.000000000000000e-01 5.000000000000000e-01 -1.666666666666667e-01
5.000000000000000e-01 1.666666666666664e-01 -1.666666666666667e-01
1.666666666666665e-01 1.666666666666665e-01 1.666666666668779e-01
1.666666666666667e-01 5.000000000000000e-01 1.666666666669281e-01
1.666666666666667e-01 5.000000000000000e-01 -1.666666666664732e-01
1.666666666666665e-01 1.666666666666666e-01 -1.666666666665234e-01
5.000000000000000e-01 -1.666666666665989e-01 1.666666666668602e-01
5.000000000000000e-01 1.666666666666667e-01 1.666666666667344e-01
5.000000000000000e-01 1.666666666666664e-01 -1.666666666666667e-01
5.000000000000000e-01 -1.666666666664732e-01 -1.666666666666665e-01
1.666666666666665e-01 -1.666666666666666e-01 1.666666666667846e-01
1.666666666666665e-01 1.666666666666665e-01 1.666666666668779e-01
1.666666666666665e-01 1.666666666666666e-01 -1.666666666665234e-01
1.666666666666664e-01 -1.666666666666665e-01 -1.666666666666166e-01
5.000000000000000e-01 -5.000000000000000e-01 1.666666666666666e-01
5.000000000000000e-01 -1.666666666665989e-01 1.666666666668602e-01
5.000000000000000e-01 -1.666666666664732e-01 -1.666666666666665e-01
5.000000000000000e-01 -5.000000000000000e-01 -1.666666666666667e-01
1.666666666666667e-01 -5.000000000000000e-01 1.666666666667344e-01
1.666666666666665e-01 -1.666666666666666e-01 1.666666666667846e-01
1.666666666666664e-01 -1.666666666666665e-01 -1.666666666666166e-01
1.666666666666664e-01 -5.000000000000000e-01 -1.666666666666667e-01
5.000000000000000e-01 1.666666666666666e-01 5.000000000000000e-01
5.000000000000000e-01 5.000000000000000e-01 5.000000000000000e-01
5.000000000000000e-01 5.000000000000000e-01 1.666666666666666e-01
5.000000000000000e-01 1.666666666666667e-01 1.666666666667344e-01
1.666666666666665e-01 1.666666666666664e-01 5.000000000000000e-01
1.666666666666667e-01 5.000000000000000e-01 5.000000000000000e-01
1.666666666666667e-01 5.000000000000000e-01 1.666666666669281e-01
1.666666666666665e-01 1.666666666666665e-01 1.666666666668779e-01
5.000000000000000e-01 -1.666666666666667e-01 5.000000000000000e-01
5.000000000000000e-01 1.666666666666666e-01 5.000000000000000e-01
5.000000000000000e-01 1.666666666666667e-01 1.666666666667344e-01
5.000000000000000e-01 -1.666666666665989e-01 1.666666666668602e-01
1.666666666666665e-01 -1.666666666666667e-01 5.000000000000000e-01
1.666666666666665e-01 1.666666666666664e-01 5.000000000000000e-01
1.666666666666665e-01 1.666666666666665e-01 1.666666666668779e-01
1.666666666666665e-01 -1.666666666666666e-01 1.666666666667846e-01
5.000000000000000e-01 -5.000000000000000e-01 5.000000000000000e-01
5.000000000000000e-01 -1.666666666666667e-01 5.000000000000000e-01
5.000000000000000e-01 -1.666666666665989e-01 1.666666666668602e-01
5.000000000000000e-01 -5.000000000000000e-01 1.666666666666666e-01
1.666666666666666e-01 -5.000000000000000e-01 5.000000000000000e-01
1.666666666666665e-01 -1.666666666666667e-01 5.000000000000000e-01
1.666666666666665e-01 -1.666666666666666e-01 1.666666666667846e-01
1.666666666666667e-01 -5.000000000000000e-01 1.666666666667344e-01
        </DataArray>
      </Points>

      <Cells>
        <DataArray type="Int32" Name="connectivity" format="ascii">
0 1 2 3 4 5 6 7 8 9 10 11 12 13 14 15 16 17 18 19 20 21 22 23 24 25 26 27 28 29 30 31 32 33 34 35 36 37 38 39 40 41 42 43 44 45 46 47 48 49 50 51 52 53 54 55 56 57 58 59 60 61 62 63 64 65 66 67 68 69 70 71 72 73 74 75 76 77 78 79 80 81 82 83 84 85 86 87 88 89 90 91 92 93 94 95 96 97 98 99 100 101 102 103 104 105 106 107 108 109 110 111 112 113 114 115 116 117 118 119 120 121 122 123 124 125 126 127 128 129 130 131 132 133 134 135 136 137 138 139 140 141 142 143 144 145 146 147 148 149 150 151 152 153 154 155 156 157 158 159 160 161 162 163 164 165 166 167 168 169 170 171 172 173 174 175 176 177 178 179 180 181 182 183 184 185 186 187 188 189 190 191 192 193 194 195 196 197 198 199 200 201 202 203 204 205 206 207 208 209 210 211 212 213 214 215 
        </DataArray>
        <DataArray type="Int32" Name="offsets" format="ascii">
8 16 24 32 40 48 56 64 72 80 88 96 104 112 120 128 136 144 152 160 168 176 184 192 200 208 216 
        </DataArray>
        <DataArray type="UInt8" Name="types" format="ascii">
12 12 12 12 12 12 12 12 12 12 12 12 12 12 12 12 12 12 12 12 12 12 12 12 12 12 12 
        </DataArray>
      </Cells>

  <PointData>
        <DataArray type="Float64" Name="rve_elem_5_gp_0_displacement" NumberOfComponents="3" format="ascii">
0.000000000000000e+00 0.000000000000000e+00 0.000000000000000e+00
-8.238416603325275e-18 1.075528555105634e-16 -2.312964634635368e-17
1.485618277451656e-17 1.098658201451978e-16 -2.312964634635743e-17
2.804666030267603e-17 3.585095183685402e-17 -1.387778780781446e-17
4.952060924825448e-18 2.428612866367397e-17 -3.238150488490040e-17
-8.238416603320611e-18 9.830099697201906e-17 -4.163336342344337e-17
1.485618277451656e-17 1.006139616066548e-16 -4.163336342344337e-17
2.804666030267603e-17 2.659909329831105e-17 -3.238150488490040e-17
0.000000000000000e+00 0.000000000000000e+00 0.000000000000000e+00
0.000000000000000e+00 0.000000000000000e+00 0.000000000000000e+00
2.804666030267603e-17 3.585095183685402e-17 -1.387778780781446e-17
4.123713783083549e-17 -3.816391647148970e-17 -4.625929269271495e-18
1.814253845299099e-17 -4.972873964465396e-17 -2.312964634635930e-17
4.952060924825448e-18 2.428612866367397e-17 -3.238150488490040e-17
2.804666030267603e-17 2.659909329831105e-17 -3.238150488490040e-17
4.123713783083550e-17 -4.741577501003271e-17 -2.312964634635743e-17
3.133301598115778e-17 -1.144917494144639e-16 4.625929269282225e-18
0.000000000000000e+00 0.000000000000000e+00 0.000000000000000e+00
4.123713783083549e-17 -3.816391647148970e-17 -4.625929269271495e-18
5.442761535899497e-17 -1.121787847798335e-16 4.625929269271483e-18
3.133301598115779e-17 -1.237436079530122e-16 -1.387778780781446e-17
1.814253845299099e-17 -4.972873964465396e-17 -2.312964634635930e-17
4.123713783083550e-17 -4.741577501003271e-17 -2.312964634635743e-17
5.442761535899497e-17 -1.214306433183765e-16 -1.387778780781446e-17
0.000000000000000e+00 0.000000000000000e+00 0.000000000000000e+00
-3.133301598117590e-17 1.052398908759299e-16 -2.312964634634669e-17
-8.238416603325275e-18 1.075528555105634e-16 -2.312964634635368e-17
0.000000000000000e+00 0.000000000000000e+00 0.000000000000000e+00
-1.814253845301644e-17 2.197316402903775e-17 -3.238150488490040e-17
-3.133301598115779e-17 9.598803233738333e-17 -4.163336342344337e-17
-8.238416603320611e-18 9.830099697201906e-17 -4.163336342344337e-17
4.952060924825448e-18 2.428612866367397e-17 -3.238150488490040e-17
0.000000000000000e+00 0.000000000000000e+00 0.000000000000000e+00
0.000000000000000e+00 0.000000000000000e+00 0.000000000000000e+00
0.000000000000000e+00 0.000000000000000e+00 0.000000000000000e+00
0.000000000000000e+00 0.000000000000000e+00 0.000000000000000e+00
-4.952060924864615e-18 -5.204170427926307e-17 -2.312964634636280e-17
-1.814253845301644e-17 2.197316402903775e-17 -3.238150488490040e-17
4.952060924825448e-18 2.428612866367397e-17 -3.238150488490040e-17
1.814253845299099e-17 -4.972873964465396e-17 -2.312964634635930e-17
8.238416603307207e-18 -1.168047140491045e-16 4.625929269275247e-18
0.000000000000000e+00 0.000000000000000e+00 0.000000000000000e+00
0.000000000000000e+00 0.000000000000000e+00 0.000000000000000e+00
3.133301598115778e-17 -1.144917494144639e-16 4.625929269282225e-18
8.238416603320619e-18 -1.260565725876480e-16 -1.387778780781446e-17
-4.952060924864615e-18 -5.204170427926307e-17 -2.312964634636280e-17
1.814253845299099e-17 -4.972873964465396e-17 -2.312964634635930e-17
3.133301598115779e-17 -1.237436079530122e-16 -1.387778780781446e-17
-4.123713783083549e-17 2.891205793294673e-17 -1.387778780781445e-17
-5.442761535899497e-17 1.029269262412906e-16 -2.312964634635743e-17
-3.133301598117590e-17 1.052398908759299e-16 -2.312964634634669e-17
0.000000000000000e+00 0.000000000000000e+00 0.000000000000000e+00
-4.123713783083550e-17 1.966019939440382e-17 -3.238150488490040e-17
-5.442761535899497e-17 9.367506770274758e-17 -4.163336342344337e-17
-3.133301598115779e-17 9.598803233738333e-17 -4.163336342344337e-17
-1.814253845301644e-17 2.197316402903775e-17 -3.238150488490040e-17
-2.804666030267603e-17 -4.510281037539700e-17 -4.625929269271487e-18
-4.123713783083549e-17 2.891205793294673e-17 -1.387778780781445e-17
0.000000000000000e+00 0.000000000000000e+00 0.000000000000000e+00
0.000000000000000e+00 0.000000000000000e+00 0.000000000000000e+00
-2.804666030267604e-17 -5.435466891393994e-17 -2.312964634635743e-17
-4.123713783083550e-17 1.966019939440382e-17 -3.238150488490040e-17
-1.814253845301644e-17 2.197316402903775e-17 -3.238150488490040e-17
-4.952060924864615e-18 -5.204170427926307e-17 -2.312964634636280e-17
-1.485618277451656e-17 -1.191176786837408e-16 4.625929269271483e-18
-2.804666030267603e-17 -4.510281037539700e-17 -4.625929269271487e-18
0.000000000000000e+00 0.000000000000000e+00 0.000000000000000e+00
8.238416603307207e-18 -1.168047140491045e-16 4.625929269275247e-18
-1.485618277451656e-17 -1.283695372222837e-16 -1.387778780781446e-17
-2.804666030267604e-17 -5.435466891393994e-17 -2.312964634635743e-17
-4.952060924864615e-18 -5.204170427926307e-17 -2.312964634636280e-17
8.238416603320619e-18 -1.260565725876480e-16 -1.387778780781446e-17
0.000000000000000e+00 0.000000000000000e+00 0.000000000000000e+00
-8.238416603334019e-18 1.168047140491037e-16 -4.625929269271483e-18
1.485618277451656e-17 1.191176786837408e-16 -4.625929269271483e-18
2.804666030267603e-17 4.510281037539699e-17 4.625929269271475e-18
0.000000000000000e+00 0.000000000000000e+00 0.000000000000000e+00
-8.238416603325275e-18 1.075528555105634e-16 -2.312964634635368e-17
1.485618277451656e-17 1.098658201451978e-16 -2.312964634635743e-17
2.804666030267603e-17 3.585095183685402e-17 -1.387778780781446e-17
0.000000000000000e+00 0.000000000000000e+00 0.000000000000000e+00
0.000000000000000e+00 0.000000000000000e+00 0.000000000000000e+00
2.804666030267603e-17 4.510281037539699e-17 4.625929269271475e-18
4.123713783083549e-17 -2.891205793294673e-17 1.387778780781444e-17
0.000000000000000e+00 0.000000000000000e+00 0.000000000000000e+00
0.000000000000000e+00 0.000000000000000e+00 0.000000000000000e+00
2.804666030267603e-17 3.585095183685402e-17 -1.387778780781446e-17
4.123713783083549e-17 -3.816391647148970e-17 -4.625929269271495e-18
3.133301598115779e-17 -1.052398908759263e-16 2.312964634635741e-17
0.000000000000000e+00 0.000000000000000e+00 0.000000000000000e+00
4.123713783083549e-17 -2.891205793294673e-17 1.387778780781444e-17
5.442761535899497e-17 -1.029269262412906e-16 2.312964634635743e-17
3.133301598115778e-17 -1.144917494144639e-16 4.625929269282225e-18
0.000000000000000e+00 0.000000000000000e+00 0.000000000000000e+00
4.123713783083549e-17 -3.816391647148970e-17 -4.625929269271495e-18
5.442761535899497e-17 -1.121787847798335e-16 4.625929269271483e-18
0.000000000000000e+00 0.000000000000000e+00 0.000000000000000e+00
-3.133301598117591e-17 1.144917494144675e-16 -4.625929269271483e-18
-8.238416603334019e-18 1.168047140491037e-16 -4.625929269271483e-18
0.000000000000000e+00 0.000000000000000e+00 0.000000000000000e+00
0.000000000000000e+00 0.000000000000000e+00 0.000000000000000e+00
-3.133301598117590e-17 1.052398908759299e-16 -2.312964634634669e-17
-8.238416603325275e-18 1.075528555105634e-16 -2.312964634635368e-17
0.000000000000000e+00 0.000000000000000e+00 0.000000000000000e+00
0.000000000000000e+00 0.000000000000000e+00 0.000000000000000e+00
0.000000000000000e+00 0.000000000000000e+00 0.000000000000000e+00
0.000000000000000e+00 0.000000000000000e+00 0.000000000000000e+00
0.000000000000000e+00 0.000000000000000e+00 0.000000000000000e+00
0.000000000000000e+00 0.000000000000000e+00 0.000000000000000e+00
0.000000000000000e+00 0.000000000000000e+00 0.000000000000000e+00
0.000000000000000e+00 0.000000000000000e+00 0.000000000000000e+00
0.000000000000000e+00 0.000000000000000e+00 0.000000000000000e+00
8.238416603315921e-18 -1.075528555105625e-16 2.312964634635743e-17
0.000000000000000e+00 0.000000000000000e+00 0.000000000000000e+00
0.000000000000000e+00 0.000000000000000e+00 0.000000000000000e+00
3.133301598115779e-17 -1.052398908759263e-16 2.312964634635741e-17
8.238416603307207e-18 -1.168047140491045e-16 4.625929269275247e-18
0.000000000000000e+00 0.000000000000000e+00 0.000000000000000e+00
0.000000000000000e+00 0.000000000000000e+00 0.000000000000000e+00
3.133301598115778e-17 -1.144917494144639e-16 4.625929269282225e-18
-4.123713783083549e-17 3.816391647148969e-17 4.625929269271483e-18
-5.442761535899497e-17 1.121787847798335e-16 -4.625929269271483e-18
-3.133301598117591e-17 1.144917494144675e-16 -4.625929269271483e-18
0.000000000000000e+00 0.000000000000000e+00 0.000000000000000e+00
-4.123713783083549e-17 2.891205793294673e-17 -1.387778780781445e-17
-5.442761535899497e-17 1.029269262412906e-16 -2.312964634635743e-17
-3.133301598117590e-17 1.052398908759299e-16 -2.312964634634669e-17
0.000000000000000e+00 0.000000000000000e+00 0.000000000000000e+00
-2.804666030267603e-17 -3.585095183685403e-17 1.387778780781445e-17
-4.123713783083549e-17 3.816391647148969e-17 4.625929269271483e-18
0.000000000000000e+00 0.000000000000000e+00 0.000000000000000e+00
0.000000000000000e+00 0.000000000000000e+00 0.000000000000000e+00
-2.804666030267603e-17 -4.510281037539700e-17 -4.625929269271487e-18
-4.123713783083549e-17 2.891205793294673e-17 -1.387778780781445e-17
0.000000000000000e+00 0.000000000000000e+00 0.000000000000000e+00
0.000000000000000e+00 0.000000000000000e+00 0.000000000000000e+00
-1.485618277451656e-17 -1.098658201451978e-16 2.312964634635743e-17
-2.804666030267603e-17 -3.585095183685403e-17 1.387778780781445e-17
0.000000000000000e+00 0.000000000000000e+00 0.000000000000000e+00
8.238416603315921e-18 -1.075528555105625e-16 2.312964634635743e-17
-1.485618277451656e-17 -1.191176786837408e-16 4.625929269271483e-18
-2.804666030267603e-17 -4.510281037539700e-17 -4.625929269271487e-18
0.000000000000000e+00 0.000000000000000e+00 0.000000000000000e+00
8.238416603307207e-18 -1.168047140491045e-16 4.625929269275247e-18
4.952060924838868e-18 5.204170427930416e-17 2.312964634635744e-17
-8.238416603320611e-18 1.260565725876480e-16 1.387778780781446e-17
1.485618277451656e-17 1.283695372222837e-16 1.387778780781446e-17
2.804666030267604e-17 5.435466891393994e-17 2.312964634635743e-17
0.000000000000000e+00 0.000000000000000e+00 0.000000000000000e+00
-8.238416603334019e-18 1.168047140491037e-16 -4.625929269271483e-18
1.485618277451656e-17 1.191176786837408e-16 -4.625929269271483e-18
2.804666030267603e-17 4.510281037539699e-17 4.625929269271475e-18
1.814253845299065e-17 -2.197316402899660e-17 3.238150488489503e-17
4.952060924838868e-18 5.204170427930416e-17 2.312964634635744e-17
2.804666030267604e-17 5.435466891393994e-17 2.312964634635743e-17
4.123713783083550e-17 -1.966019939440382e-17 3.238150488490040e-17
0.000000000000000e+00 0.000000000000000e+00 0.000000000000000e+00
0.000000000000000e+00 0.000000000000000e+00 0.000000000000000e+00
2.804666030267603e-17 4.510281037539699e-17 4.625929269271475e-18
4.123713783083549e-17 -2.891205793294673e-17 1.387778780781444e-17
3.133301598115779e-17 -9.598803233738333e-17 4.163336342344337e-17
1.814253845299065e-17 -2.197316402899660e-17 3.238150488489503e-17
4.123713783083550e-17 -1.966019939440382e-17 3.238150488490040e-17
5.442761535899497e-17 -9.367506770274758e-17 4.163336342344337e-17
3.133301598115779e-17 -1.052398908759263e-16 2.312964634635741e-17
0.000000000000000e+00 0.000000000000000e+00 0.000000000000000e+00
4.123713783083549e-17 -2.891205793294673e-17 1.387778780781444e-17
5.442761535899497e-17 -1.029269262412906e-16 2.312964634635743e-17
-1.814253845300302e-17 4.972873964466801e-17 2.312964634635743e-17
-3.133301598115779e-17 1.237436079530122e-16 1.387778780781446e-17
-8.238416603320611e-18 1.260565725876480e-16 1.387778780781446e-17
4.952060924838868e-18 5.204170427930416e-17 2.312964634635744e-17
0.000000000000000e+00 0.000000000000000e+00 0.000000000000000e+00
-3.133301598117591e-17 1.144917494144675e-16 -4.625929269271483e-18
-8.238416603334019e-18 1.168047140491037e-16 -4.625929269271483e-18
0.000000000000000e+00 0.000000000000000e+00 0.000000000000000e+00
-4.952060924854943e-18 -2.428612866366160e-17 3.238150488489852e-17
-1.814253845300302e-17 4.972873964466801e-17 2.312964634635743e-17
4.952060924838868e-18 5.204170427930416e-17 2.312964634635744e-17
1.814253845299065e-17 -2.197316402899660e-17 3.238150488489503e-17
0.000000000000000e+00 0.000000000000000e+00 0.000000000000000e+00
0.000000000000000e+00 0.000000000000000e+00 0.000000000000000e+00
0.000000000000000e+00 0.000000000000000e+00 0.000000000000000e+00
0.000000000000000e+00 0.000000000000000e+00 0.000000000000000e+00
8.238416603320619e-18 -9.830099697201906e-17 4.163336342344337e-17
-4.952060924854943e-18 -2.428612866366160e-17 3.238150488489852e-17
1.814253845299065e-17 -2.197316402899660e-17 3.238150488489503e-17