<?xml version="1.0" ?> 
<!-- 
# vtk DataFile Version 3.0
-->
<VTKFile type="UnstructuredGrid" version="0.1" compressor="vtkZLibDataCompressor" byte_order="LittleEndian">
  <UnstructuredGrid>
    <FieldData>
      <DataArray type="Float64" Name="TIME" NumberOfTuples="1" format="ascii">
9.999999999999999e-01 
      </DataArray>
    </FieldData>

    <Piece NumberOfPoints="16" NumberOfCells="2" >
      <Points>
        <DataArray type="Float64" NumberOfComponents="3" format="ascii">
-5.000000000000000e+00 1.000000000000000e+01 5.000000000000000e+00
-5.000000000000000e+00 1.000000000000000e+01 -5.000000000000000e+00
-5.000000000000000e+00 2.000000000000000e+01 -5.000000000000000e+00
-5.000000000000000e+00 2.000000000000000e+01 5.000000000000000e+00
5.000000000000000e+00 1.000000000000000e+01 5.000000000000000e+00
5.000000000000000e+00 1.000000000000000e+01 -5.000000000000000e+00
5.000000000000000e+00 2.000000000000000e+01 -5.000000000000000e+00
5.000000000000000e+00 2.000000000000000e+01 5.000000000000000e+00
-5.000000000000000e+00 2.500000000000000e+01 5.000000000000000e+00
-5.000000000000000e+00 2.500000000000000e+01 -5.000000000000000e+00
-5.000000000000000e+00 3.500000000000000e+01 -5.000000000000000e+00
-5.000000000000000e+00 3.500000000000000e+01 5.000000000000000e+00
5.000000000000000e+00 2.500000000000000e+01 5.000000000000000e+00
5.000000000000000e+00 2.500000000000000e+01 -5.000000000000000e+00
5.000000000000000e+00 3.500000000000000e+01 -5.000000000000000e+00
5.000000000000000e+00 3.500000000000000e+01 5.000000000000000e+00
        </DataArray>
      </Points>

      <Cells>
        <DataArray type="Int32" Name="connectivity" format="ascii">
0 1 2 3 4 5 6 7 8 9 10 11 12 13 14 15 
        </DataArray>
        <DataArray type="Int32" Name="offsets" format="ascii">
8 16 
        </DataArray>
        <DataArray type="UInt8" Name="types" format="ascii">
12 12 
        </DataArray>
      </Cells>

  <PointData>
        <DataArray type="Float64" Name="displacement" NumberOfComponents="3" format="ascii">
0.000000000000000e+00 0.000000000000000e+00 0.000000000000000e+00
0.000000000000000e+00 0.000000000000000e+00 0.000000000000000e+00
0.000000000000000e+00 0.000000000000000e+00 0.000000000000000e+00
0.000000000000000e+00 0.000000000000000e+00 0.000000000000000e+00
-7.496621150249423e-03 0.000000000000000e+00 0.000000000000000e+00
-7.496621150268504e-03 0.000000000000000e+00 0.000000000000000e+00
-7.496621150260502e-03 0.000000000000000e+00 0.000000000000000e+00
-7.496621150265543e-03 0.000000000000000e+00 0.000000000000000e+00
0.000000000000000e+00 0.000000000000000e+00 0.000000000000000e+00
0.000000000000000e+00 0.000000000000000e+00 0.000000000000000e+00
0.000000000000000e+00 0.000000000000000e+00 0.000000000000000e+00
0.000000000000000e+00 0.000000000000000e+00 0.000000000000000e+00
-5.512974452830081e-02 0.000000000000000e+00 0.000000000000000e+00
-5.512974452831596e-02 0.000000000000000e+00 0.000000000000000e+00
-5.512974452831214e-02 0.000000000000000e+00 0.000000000000000e+00
-5.512974452832895e-02 0.000000000000000e+00 0.000000000000000e+00
        </DataArray>
        <DataArray type="Float64" Name="nodal_GL_strains_xyz" NumberOfComponents="6" format="ascii">
-7.493811183816100e-04 -1.110223024625156e-16 -1.367851174070988e-16 1.099783932783736e-16 1.587382151872144e-18 9.195254274814239e-18
-7.493811183835889e-04 8.127396617584070e-17 -1.367851174070986e-16 -1.269747741946685e-16 -5.924190841814043e-18 -5.320473224042754e-17
-7.493811183829559e-04 -1.625479323516815e-16 -5.402373441692408e-16 3.042452063570353e-16 5.691781964574289e-18 -3.115296397639076e-17
-7.493811183830635e-04 -1.110223024625157e-16 -5.402373441692406e-16 -8.438199898581728e-17 -1.525108380901760e-18 7.504671607266237e-18
-7.493811183814171e-04 6.066371422017440e-16 -3.479410755308845e-16 -6.341371774555884e-16 -4.824420226587128e-18 1.051286065749091e-15
-7.493811183836407e-04 -1.110223024625156e-16 -3.479410755308843e-16 3.104350473421190e-16 1.800498140268203e-17 1.017832600593362e-15
-7.493811183827636e-04 -1.110223024625157e-16 2.478074198696141e-16 3.034560014387027e-16 -5.924190841814051e-18 -2.475428701417065e-16
-7.493811183837814e-04 -3.033185711008720e-16 2.478074198696141e-16 -8.429560335205362e-16 1.587382151872169e-18 -1.747345427706045e-16
-5.497778009171887e-03 4.034522267621423e-16 -4.956148397392287e-16 -3.948927319982279e-16 -2.199541230455755e-18 2.607676374819175e-18
-5.497778009172570e-03 3.519265968729763e-16 -4.956148397392283e-16 -4.262149908785731e-16 8.208799625404670e-18 -4.868674265284263e-17
-5.497778009172653e-03 1.219109492637612e-16 -4.440892098500625e-16 9.213832930385530e-16 1.421805802035344e-17 -8.422443741075602e-17
-5.497778009174053e-03 -7.038531937459507e-17 -4.440892098500625e-16 7.191533540229648e-16 -3.809717164492913e-18 7.115339017551434e-17
-5.497778009171691e-03 -4.549778566513080e-16 -4.440892098500626e-16 -1.624567462803772e-15 -3.809717164494274e-18 7.288604644127703e-16
-5.497778009173286e-03 -2.626815880129515e-16 -4.440892098500625e-16 -3.702119887513405e-16 1.421805802035367e-17 7.400160905202728e-16
-5.497778009172461e-03 5.957484954004987e-16 2.735702348141970e-16 8.482617913318680e-16 -8.208799625405029e-18 -8.999203947246881e-16
-5.497778009174106e-03 1.313407940064758e-15 2.735702348141971e-16 -1.110554542031266e-15 2.199541230458017e-18 -8.069926122735825e-16
        </DataArray>
        <DataArray type="Float64" Name="nodal_cauchy_stresses_xyz" NumberOfComponents="6" format="ascii">
-1.008026028890933e-02 -4.326596091226645e-03 -4.326596091226840e-03 8.435859308551588e-16 1.220605673025637e-17 7.039992069675339e-17
-1.008026028893482e-02 -4.326596091235486e-03 -4.326596091237162e-03 -9.743527608857569e-16 -4.555362387737825e-17 -4.083410155675180e-16
-1.008026028893005e-02 -4.326596091237442e-03 -4.326596091240345e-03 2.334143310749811e-15 4.376653314005453e-17 -2.388418171131775e-16
-1.008026028893120e-02 -4.326596091237365e-03 -4.326596091240668e-03 -6.471083797167550e-16 -1.172720721038788e-17 5.774466770220682e-17
-1.008026028890382e-02 -4.326596091217081e-03 -4.326596091224422e-03 -4.873911349611456e-15 -3.709701971063870e-17 8.076975734146285e-15
-1.008026028893785e-02 -4.326596091239591e-03 -4.326596091241415e-03 2.386457629550951e-15 1.384479623694590e-16 7.820316332048066e-15
-1.008026028892261e-02 -4.326596091231082e-03 -4.326596091228322e-03 2.332898662583340e-15 -4.555362387737808e-17 -1.901749139119555e-15
-1.008026028893741e-02 -4.326596091239554e-03 -4.326596091235318e-03 -6.477015583451890e-15 1.220605673025580e-17 -1.343154037420894e-15
-7.360054287734663e-02 -3.189377964530095e-02 -3.189377964530786e-02 -2.976412672628492e-15 -1.687303867999361e-17 2.062974391452222e-17
-7.360054287735587e-02 -3.189377964530561e-02 -3.189377964531212e-02 -3.218585399472662e-15 6.297103763182077e-17 -3.663502589810878e-16
-7.360054287735805e-02 -3.189377964530891e-02 -3.189377964531322e-02 6.950665899686060e-15 1.090690365836418e-16 -6.355928267734717e-16
-7.360054287737780e-02 -3.189377964531968e-02 -3.189377964532254e-02 5.423861774431362e-15 -2.922496027183032e-17 5.366226561004597e-16
-7.360054287734855e-02 -3.189377964531110e-02 -3.189377964531100e-02 -1.237752851309687e-14 -2.922496027184166e-17 5.561713881304114e-15
-7.360054287736874e-02 -3.189377964531779e-02 -3.189377964531917e-02 -2.769063007235846e-15 1.090690365836447e-16 5.645875166395490e-15
-7.360054287734855e-02 -3.189377964529722e-02 -3.189377964529970e-02 6.413835131194108e-15 -6.297103763182620e-17 -6.861988546773240e-15
-7.360054287736635e-02 -3.189377964529710e-02 -3.189377964530508e-02 -8.483196284142802e-15 1.687303868000889e-17 -6.160914351886289e-15
        </DataArray>
  </PointData>
  <CellData>
        <DataArray type="Float64" Name="element_GL_strains_xyz" NumberOfComponents="6" format="ascii">
-7.493811183828525e-04 -2.775557561562891e-17 -1.942890293094024e-16 -8.254191696754749e-17 1.084202172485456e-18 1.973979353869254e-16
-5.497778009172838e-03 2.498001805406602e-16 -2.775557561562891e-16 -1.797054097587243e-16 2.602085213965228e-18 -3.714832069731159e-17
        </DataArray>
        <DataArray type="Float64" Name="element_cauchy_stresses_xyz" NumberOfComponents="6" format="ascii">
-1.008026028892589e-02 -4.326596091233031e-03 -4.326596091234311e-03 -6.344128174908245e-16 8.336891786780351e-18 1.516668830671521e-15
-7.360054287735880e-02 -3.189377964530729e-02 -3.189377964531134e-02 -1.379552883908142e-15 1.996101907795304e-17 -2.825005670874380e-16
        </DataArray>
      </CellData>

    </Piece>
  </UnstructuredGrid>
</VTKFile>
