<?xml version="1.0" ?> 
<!-- 
# vtk DataFile Version 3.0
-->
<VTKFile type="UnstructuredGrid" version="0.1" compressor="vtkZLibDataCompressor" byte_order="LittleEndian">
  <UnstructuredGrid>
    <FieldData>
      <DataArray type="Float64" Name="TIME" NumberOfTuples="1" format="ascii">
9.999999999999999e-01 
      </DataArray>
    </FieldData>

    <Piece NumberOfPoints="8" NumberOfCells="1" >
      <Points>
        <DataArray type="Float64" NumberOfComponents="3" format="ascii">
-5.000000000000000e+00 -5.000000000000000e+00 5.000000000000000e+00
-5.000000000000000e+00 -5.000000000000000e+00 -5.000000000000000e+00
-5.000000000000000e+00 5.000000000000000e+00 -5.000000000000000e+00
-5.000000000000000e+00 5.000000000000000e+00 5.000000000000000e+00
5.000000000000000e+00 -5.000000000000000e+00 5.000000000000000e+00
5.000000000000000e+00 -5.000000000000000e+00 -5.000000000000000e+00
5.000000000000000e+00 5.000000000000000e+00 -5.000000000000000e+00
5.000000000000000e+00 5.000000000000000e+00 5.000000000000000e+00
        </DataArray>
      </Points>

      <Cells>
        <DataArray type="Int32" Name="connectivity" format="ascii">
0 1 2 3 4 5 6 7 
        </DataArray>
        <DataArray type="Int32" Name="offsets" format="ascii">
8 
        </DataArray>
        <DataArray type="UInt8" Name="types" format="ascii">
12 
        </DataArray>
      </Cells>

  <PointData>
        <DataArray type="Float64" Name="displacement" NumberOfComponents="3" format="ascii">
0.000000000000000e+00 0.000000000000000e+00 0.000000000000000e+00
0.000000000000000e+00 0.000000000000000e+00 0.000000000000000e+00
0.000000000000000e+00 0.000000000000000e+00 0.000000000000000e+00
0.000000000000000e+00 0.000000000000000e+00 0.000000000000000e+00
-2.359210932104972e-01 0.000000000000000e+00 0.000000000000000e+00
-2.359210932105117e-01 0.000000000000000e+00 0.000000000000000e+00
-2.359210932104766e-01 0.000000000000000e+00 0.000000000000000e+00
-2.359210932105074e-01 0.000000000000000e+00 0.000000000000000e+00
        </DataArray>
        <DataArray type="Float64" Name="nodal_GL_strains_xyz" NumberOfComponents="6" format="ascii">
-2.331381550994206e-02 -4.698520247946459e-16 -6.472741252896648e-16 7.569993100534322e-19 3.174764303744799e-19 -2.234052476267308e-17
-2.331381550994284e-02 -1.487416814333756e-17 7.038531937459517e-17 -2.796615782505594e-17 -1.184838168363189e-18 -2.754469519060340e-17
-2.331381550993963e-02 -7.325336128075972e-16 -5.957484954004985e-16 9.964116917325319e-18 4.421876243077594e-18 -8.225852457622296e-17
-2.331381550994261e-02 -2.775557561562891e-16 -4.034522267621421e-16 -4.695650804883461e-17 -1.184838168362992e-18 7.730266280036126e-17
-2.331381550994214e-02 -1.556448068925281e-16 -4.034522267621422e-16 -4.537800375067314e-16 -8.506755313528028e-20 6.729186494556290e-16
-2.331381550994281e-02 -2.775557561562890e-16 -5.957484954004984e-16 1.696183422979737e-15 3.174764303764388e-19 7.423409609079839e-16
-2.331381550993973e-02 -8.525948751793290e-17 3.142072179021173e-16 1.731736642467741e-15 -1.184838168367087e-18 -1.453653001665598e-15
-2.331381550994226e-02 -2.071704367816938e-16 2.626815880129516e-16 -3.952786357679517e-16 3.174764303755273e-19 -1.458857172093526e-15
        </DataArray>
        <DataArray type="Float64" Name="nodal_cauchy_stresses_xyz" NumberOfComponents="6" format="ascii">
-3.064356807311316e-01 -1.377526575441849e-01 -1.377526575441862e-01 -4.360552976973897e-18 2.413666956114242e-18 -1.578564528927165e-16
-3.064356807311345e-01 -1.377526575441791e-01 -1.377526575441785e-01 -1.916022350175454e-16 -9.007927712768891e-18 -1.946219812434343e-16
-3.064356807311019e-01 -1.377526575441736e-01 -1.377526575441725e-01 7.257801749443308e-17 3.361804389495468e-17 -5.848398490273705e-16
-3.064356807311361e-01 -1.377526575441842e-01 -1.377526575441852e-01 -3.404250752672404e-16 -9.007927712766814e-18 5.424005900413034e-16
-3.064356807311291e-01 -1.377526575441796e-01 -1.377526575441815e-01 -3.360719221415284e-15 -6.467401116925521e-19 4.993484362360008e-15
-3.064356807311398e-01 -1.377526575441865e-01 -1.377526575441889e-01 1.256922851158075e-14 2.413666956130402e-18 5.483927170723062e-15
-3.064356807310935e-01 -1.377526575441598e-01 -1.377526575441567e-01 1.282141244290211e-14 -9.007927712800070e-18 -1.076928103436898e-14
-3.064356807311273e-01 -1.377526575441771e-01 -1.377526575441735e-01 -2.947700187424781e-15 2.413666956121853e-18 -1.080604656271965e-14
        </DataArray>
  </PointData>
  <CellData>
        <DataArray type="Float64" Name="element_GL_strains_xyz" NumberOfComponents="6" format="ascii">
-2.331381550994176e-02 -2.775557561562891e-16 -2.498001805406602e-16 3.143324803157854e-16 2.168404344969363e-19 -1.940114556405811e-16
        </DataArray>
        <DataArray type="Float64" Name="element_cauchy_stresses_xyz" NumberOfComponents="6" format="ascii">
-3.064356807311241e-01 -1.377526575441781e-01 -1.377526575441779e-01 2.327301462484433e-15 1.648565189161607e-18 -1.436604219640973e-15
        </DataArray>
      </CellData>

    </Piece>
  </UnstructuredGrid>
</VTKFile>
