<?xml version="1.0" ?> 
<!-- 
# vtk DataFile Version 3.0
-->
<VTKFile type="UnstructuredGrid" version="0.1" compressor="vtkZLibDataCompressor" byte_order="LittleEndian">
  <UnstructuredGrid>
    <FieldData>
      <DataArray type="Float64" Name="TIME" NumberOfTuples="1" format="ascii">
1.000000000000000e+00 
      </DataArray>
    </FieldData>

    <Piece NumberOfPoints="440" NumberOfCells="78" >
      <Points>
        <DataArray type="Float64" NumberOfComponents="3" format="ascii">
0.000000000000000e+00 0.000000000000000e+00 0.000000000000000e+00
1.000000000000000e+00 0.000000000000000e+00 0.000000000000000e+00
1.000000000000000e+00 1.000000000000000e+00 0.000000000000000e+00
0.000000000000000e+00 1.000000000000000e+00 0.000000000000000e+00
0.000000000000000e+00 0.000000000000000e+00 1.000000000000000e+00
1.000000000000000e+00 0.000000000000000e+00 1.000000000000000e+00
1.000000000000000e+00 1.000000000000000e+00 1.000000000000000e+00
0.000000000000000e+00 1.000000000000000e+00 1.000000000000000e+00
1.000000000000000e+00 0.000000000000000e+00 0.000000000000000e+00
2.000000000000000e+00 0.000000000000000e+00 0.000000000000000e+00
2.000000000000000e+00 1.000000000000000e+00 0.000000000000000e+00
1.000000000000000e+00 1.000000000000000e+00 0.000000000000000e+00
1.000000000000000e+00 0.000000000000000e+00 1.000000000000000e+00
2.000000000000000e+00 0.000000000000000e+00 1.000000000000000e+00
2.000000000000000e+00 1.000000000000000e+00 1.000000000000000e+00
1.000000000000000e+00 1.000000000000000e+00 1.000000000000000e+00
0.000000000000000e+00 1.500000000000000e+00 1.000000000000000e+00
0.000000000000000e+00 1.500000000000000e+00 0.000000000000000e+00
0.000000000000000e+00 2.000000000000000e+00 5.000000000000000e-01
5.000000000000000e-01 1.500000000000000e+00 5.000000000000000e-01
0.000000000000000e+00 1.500000000000000e+00 0.000000000000000e+00
0.000000000000000e+00 2.500000000000000e+00 0.000000000000000e+00
0.000000000000000e+00 2.000000000000000e+00 5.000000000000000e-01
5.000000000000000e-01 2.000000000000000e+00 0.000000000000000e+00
0.000000000000000e+00 2.500000000000000e+00 0.000000000000000e+00
0.000000000000000e+00 2.500000000000000e+00 1.000000000000000e+00
0.000000000000000e+00 2.000000000000000e+00 5.000000000000000e-01
5.000000000000000e-01 2.500000000000000e+00 5.000000000000000e-01
0.000000000000000e+00 2.500000000000000e+00 1.000000000000000e+00
0.000000000000000e+00 1.500000000000000e+00 1.000000000000000e+00
0.000000000000000e+00 2.000000000000000e+00 5.000000000000000e-01
5.000000000000000e-01 2.000000000000000e+00 1.000000000000000e+00
0.000000000000000e+00 1.500000000000000e+00 1.000000000000000e+00
1.000000000000000e+00 1.500000000000000e+00 1.000000000000000e+00
5.000000000000000e-01 1.500000000000000e+00 5.000000000000000e-01
5.000000000000000e-01 2.000000000000000e+00 1.000000000000000e+00
0.000000000000000e+00 1.500000000000000e+00 0.000000000000000e+00
1.000000000000000e+00 1.500000000000000e+00 0.000000000000000e+00
5.000000000000000e-01 2.000000000000000e+00 0.000000000000000e+00
5.000000000000000e-01 1.500000000000000e+00 5.000000000000000e-01
0.000000000000000e+00 2.500000000000000e+00 0.000000000000000e+00
1.000000000000000e+00 2.500000000000000e+00 0.000000000000000e+00
5.000000000000000e-01 2.500000000000000e+00 5.000000000000000e-01
5.000000000000000e-01 2.000000000000000e+00 0.000000000000000e+00
0.000000000000000e+00 2.500000000000000e+00 1.000000000000000e+00
1.000000000000000e+00 2.500000000000000e+00 1.000000000000000e+00
5.000000000000000e-01 2.000000000000000e+00 1.000000000000000e+00
5.000000000000000e-01 2.500000000000000e+00 5.000000000000000e-01
1.000000000000000e+00 1.500000000000000e+00 1.000000000000000e+00
1.000000000000000e+00 1.500000000000000e+00 0.000000000000000e+00
5.000000000000000e-01 1.500000000000000e+00 5.000000000000000e-01
1.000000000000000e+00 2.000000000000000e+00 5.000000000000000e-01
1.000000000000000e+00 1.500000000000000e+00 0.000000000000000e+00
1.000000000000000e+00 2.500000000000000e+00 0.000000000000000e+00
5.000000000000000e-01 2.000000000000000e+00 0.000000000000000e+00
1.000000000000000e+00 2.000000000000000e+00 5.000000000000000e-01
1.000000000000000e+00 2.500000000000000e+00 0.000000000000000e+00
1.000000000000000e+00 2.500000000000000e+00 1.000000000000000e+00
5.000000000000000e-01 2.500000000000000e+00 5.000000000000000e-01
1.000000000000000e+00 2.000000000000000e+00 5.000000000000000e-01
1.000000000000000e+00 2.500000000000000e+00 1.000000000000000e+00
1.000000000000000e+00 1.500000000000000e+00 1.000000000000000e+00
5.000000000000000e-01 2.000000000000000e+00 1.000000000000000e+00
1.000000000000000e+00 2.000000000000000e+00 5.000000000000000e-01
0.000000000000000e+00 2.000000000000000e+00 5.000000000000000e-01
5.000000000000000e-01 1.500000000000000e+00 5.000000000000000e-01
5.000000000000000e-01 2.000000000000000e+00 1.000000000000000e+00
0.000000000000000e+00 1.500000000000000e+00 1.000000000000000e+00
0.000000000000000e+00 2.000000000000000e+00 5.000000000000000e-01
5.000000000000000e-01 2.000000000000000e+00 0.000000000000000e+00
5.000000000000000e-01 1.500000000000000e+00 5.000000000000000e-01
0.000000000000000e+00 1.500000000000000e+00 0.000000000000000e+00
0.000000000000000e+00 2.000000000000000e+00 5.000000000000000e-01
5.000000000000000e-01 2.500000000000000e+00 5.000000000000000e-01
5.000000000000000e-01 2.000000000000000e+00 0.000000000000000e+00
0.000000000000000e+00 2.500000000000000e+00 0.000000000000000e+00
0.000000000000000e+00 2.000000000000000e+00 5.000000000000000e-01
5.000000000000000e-01 2.000000000000000e+00 1.000000000000000e+00
5.000000000000000e-01 2.500000000000000e+00 5.000000000000000e-01
0.000000000000000e+00 2.500000000000000e+00 1.000000000000000e+00
1.000000000000000e+00 2.000000000000000e+00 5.000000000000000e-01
5.000000000000000e-01 2.000000000000000e+00 1.000000000000000e+00
5.000000000000000e-01 1.500000000000000e+00 5.000000000000000e-01
1.000000000000000e+00 1.500000000000000e+00 1.000000000000000e+00
1.000000000000000e+00 2.000000000000000e+00 5.000000000000000e-01
5.000000000000000e-01 1.500000000000000e+00 5.000000000000000e-01
5.000000000000000e-01 2.000000000000000e+00 0.000000000000000e+00
1.000000000000000e+00 1.500000000000000e+00 0.000000000000000e+00
1.000000000000000e+00 2.000000000000000e+00 5.000000000000000e-01
5.000000000000000e-01 2.000000000000000e+00 0.000000000000000e+00
5.000000000000000e-01 2.500000000000000e+00 5.000000000000000e-01
1.000000000000000e+00 2.500000000000000e+00 0.000000000000000e+00
1.000000000000000e+00 2.000000000000000e+00 5.000000000000000e-01
5.000000000000000e-01 2.500000000000000e+00 5.000000000000000e-01
5.000000000000000e-01 2.000000000000000e+00 1.000000000000000e+00
1.000000000000000e+00 2.500000000000000e+00 1.000000000000000e+00
0.000000000000000e+00 2.000000000000000e+00 5.000000000000000e-01
5.000000000000000e-01 2.000000000000000e+00 1.000000000000000e+00
5.000000000000000e-01 1.500000000000000e+00 5.000000000000000e-01
5.000000000000000e-01 2.000000000000000e+00 5.000000000000000e-01
0.000000000000000e+00 2.000000000000000e+00 5.000000000000000e-01
5.000000000000000e-01 1.500000000000000e+00 5.000000000000000e-01
5.000000000000000e-01 2.000000000000000e+00 0.000000000000000e+00
5.000000000000000e-01 2.000000000000000e+00 5.000000000000000e-01
0.000000000000000e+00 2.000000000000000e+00 5.000000000000000e-01
5.000000000000000e-01 2.000000000000000e+00 0.000000000000000e+00
5.000000000000000e-01 2.500000000000000e+00 5.000000000000000e-01
5.000000000000000e-01 2.000000000000000e+00 5.000000000000000e-01
0.000000000000000e+00 2.000000000000000e+00 5.000000000000000e-01
5.000000000000000e-01 2.500000000000000e+00 5.000000000000000e-01
5.000000000000000e-01 2.000000000000000e+00 1.000000000000000e+00
5.000000000000000e-01 2.000000000000000e+00 5.000000000000000e-01
1.000000000000000e+00 2.000000000000000e+00 5.000000000000000e-01
5.000000000000000e-01 1.500000000000000e+00 5.000000000000000e-01
5.000000000000000e-01 2.000000000000000e+00 1.000000000000000e+00
5.000000000000000e-01 2.000000000000000e+00 5.000000000000000e-01
1.000000000000000e+00 2.000000000000000e+00 5.000000000000000e-01
5.000000000000000e-01 2.000000000000000e+00 0.000000000000000e+00
5.000000000000000e-01 1.500000000000000e+00 5.000000000000000e-01
5.000000000000000e-01 2.000000000000000e+00 5.000000000000000e-01
1.000000000000000e+00 2.000000000000000e+00 5.000000000000000e-01
5.000000000000000e-01 2.500000000000000e+00 5.000000000000000e-01
5.000000000000000e-01 2.000000000000000e+00 0.000000000000000e+00
5.000000000000000e-01 2.000000000000000e+00 5.000000000000000e-01
1.000000000000000e+00 2.000000000000000e+00 5.000000000000000e-01
5.000000000000000e-01 2.000000000000000e+00 1.000000000000000e+00
5.000000000000000e-01 2.500000000000000e+00 5.000000000000000e-01
5.000000000000000e-01 2.000000000000000e+00 5.000000000000000e-01
1.000000000000000e+00 1.500000000000000e+00 1.000000000000000e+00
1.000000000000000e+00 1.500000000000000e+00 0.000000000000000e+00
1.000000000000000e+00 2.000000000000000e+00 5.000000000000000e-01
1.500000000000000e+00 1.500000000000000e+00 5.000000000000000e-01
1.000000000000000e+00 1.500000000000000e+00 0.000000000000000e+00
1.000000000000000e+00 2.500000000000000e+00 0.000000000000000e+00
1.000000000000000e+00 2.000000000000000e+00 5.000000000000000e-01
1.500000000000000e+00 2.000000000000000e+00 0.000000000000000e+00
1.000000000000000e+00 2.500000000000000e+00 0.000000000000000e+00
1.000000000000000e+00 2.500000000000000e+00 1.000000000000000e+00
1.000000000000000e+00 2.000000000000000e+00 5.000000000000000e-01
1.500000000000000e+00 2.500000000000000e+00 5.000000000000000e-01
1.000000000000000e+00 2.500000000000000e+00 1.000000000000000e+00
1.000000000000000e+00 1.500000000000000e+00 1.000000000000000e+00
1.000000000000000e+00 2.000000000000000e+00 5.000000000000000e-01
1.500000000000000e+00 2.000000000000000e+00 1.000000000000000e+00
[...]
  <PointData>
        <DataArray type="Float64" Name="displacement" NumberOfComponents="3" format="ascii">
0.000000000000000e+00 0.000000000000000e+00 0.000000000000000e+00
2.366620096872243e-02 4.293487958510342e-02 4.293487958510345e-02
2.366620096872253e-02 -4.293487958510346e-02 4.293487958510338e-02
0.000000000000000e+00 0.000000000000000e+00 0.000000000000000e+00
0.000000000000000e+00 0.000000000000000e+00 0.000000000000000e+00
2.366620096872254e-02 4.293487958510343e-02 -4.293487958510345e-02
2.366620096872279e-02 -4.293487958510354e-02 -4.293487958510338e-02
0.000000000000000e+00 0.000000000000000e+00 0.000000000000000e+00
2.366620096872243e-02 4.293487958510342e-02 4.293487958510345e-02
1.728718635946639e+00 1.354859504934579e-01 1.354859504934581e-01
1.728718635946638e+00 -1.354859504934580e-01 1.354859504934581e-01
2.366620096872253e-02 -4.293487958510346e-02 4.293487958510338e-02
2.366620096872254e-02 4.293487958510343e-02 -4.293487958510345e-02
1.728718635946639e+00 1.354859504934580e-01 -1.354859504934581e-01
1.728718635946638e+00 -1.354859504934582e-01 -1.354859504934580e-01
2.366620096872279e-02 -4.293487958510354e-02 -4.293487958510338e-02
0.000000000000000e+00 0.000000000000000e+00 0.000000000000000e+00
0.000000000000000e+00 0.000000000000000e+00 0.000000000000000e+00
0.000000000000000e+00 0.000000000000000e+00 0.000000000000000e+00
1.162062577135270e-02 1.107018532270809e-02 3.172594801835307e-18
0.000000000000000e+00 0.000000000000000e+00 0.000000000000000e+00
0.000000000000000e+00 0.000000000000000e+00 0.000000000000000e+00
0.000000000000000e+00 0.000000000000000e+00 0.000000000000000e+00
1.162062577135271e-02 -7.483722601970494e-19 1.107018532270809e-02
0.000000000000000e+00 0.000000000000000e+00 0.000000000000000e+00
0.000000000000000e+00 0.000000000000000e+00 0.000000000000000e+00
0.000000000000000e+00 0.000000000000000e+00 0.000000000000000e+00
1.162062577135271e-02 -1.107018532270811e-02 -3.677084152971326e-18
0.000000000000000e+00 0.000000000000000e+00 0.000000000000000e+00
0.000000000000000e+00 0.000000000000000e+00 0.000000000000000e+00
0.000000000000000e+00 0.000000000000000e+00 0.000000000000000e+00
1.162062577135270e-02 -2.114403489169342e-18 -1.107018532270811e-02
0.000000000000000e+00 0.000000000000000e+00 0.000000000000000e+00
2.397089668506289e-02 4.346609034709374e-02 -4.346609034709377e-02
1.162062577135270e-02 1.107018532270809e-02 3.172594801835307e-18
1.162062577135270e-02 -2.114403489169342e-18 -1.107018532270811e-02
0.000000000000000e+00 0.000000000000000e+00 0.000000000000000e+00
2.397089668506286e-02 4.346609034709373e-02 4.346609034709376e-02
1.162062577135271e-02 -7.483722601970494e-19 1.107018532270809e-02
1.162062577135270e-02 1.107018532270809e-02 3.172594801835307e-18
0.000000000000000e+00 0.000000000000000e+00 0.000000000000000e+00
2.397089668506296e-02 -4.346609034709376e-02 4.346609034709376e-02
1.162062577135271e-02 -1.107018532270811e-02 -3.677084152971326e-18
1.162062577135271e-02 -7.483722601970494e-19 1.107018532270809e-02
0.000000000000000e+00 0.000000000000000e+00 0.000000000000000e+00
2.397089668506288e-02 -4.346609034709377e-02 -4.346609034709375e-02
1.162062577135270e-02 -2.114403489169342e-18 -1.107018532270811e-02
1.162062577135271e-02 -1.107018532270811e-02 -3.677084152971326e-18
2.397089668506289e-02 4.346609034709374e-02 -4.346609034709377e-02
2.397089668506286e-02 4.346609034709373e-02 4.346609034709376e-02
1.162062577135270e-02 1.107018532270809e-02 3.172594801835307e-18
2.189128926573197e-02 -1.176369302253306e-17 -1.862840109710932e-18
2.397089668506286e-02 4.346609034709373e-02 4.346609034709376e-02
2.397089668506296e-02 -4.346609034709376e-02 4.346609034709376e-02
1.162062577135271e-02 -7.483722601970494e-19 1.107018532270809e-02
2.189128926573197e-02 -1.176369302253306e-17 -1.862840109710932e-18
2.397089668506296e-02 -4.346609034709376e-02 4.346609034709376e-02
2.397089668506288e-02 -4.346609034709377e-02 -4.346609034709375e-02
1.162062577135271e-02 -1.107018532270811e-02 -3.677084152971326e-18
2.189128926573197e-02 -1.176369302253306e-17 -1.862840109710932e-18
2.397089668506288e-02 -4.346609034709377e-02 -4.346609034709375e-02
2.397089668506289e-02 4.346609034709374e-02 -4.346609034709377e-02
1.162062577135270e-02 -2.114403489169342e-18 -1.107018532270811e-02
2.189128926573197e-02 -1.176369302253306e-17 -1.862840109710932e-18
0.000000000000000e+00 0.000000000000000e+00 0.000000000000000e+00
1.162062577135270e-02 1.107018532270809e-02 3.172594801835307e-18
1.162062577135270e-02 -2.114403489169342e-18 -1.107018532270811e-02
0.000000000000000e+00 0.000000000000000e+00 0.000000000000000e+00
0.000000000000000e+00 0.000000000000000e+00 0.000000000000000e+00
1.162062577135271e-02 -7.483722601970494e-19 1.107018532270809e-02
1.162062577135270e-02 1.107018532270809e-02 3.172594801835307e-18
0.000000000000000e+00 0.000000000000000e+00 0.000000000000000e+00
0.000000000000000e+00 0.000000000000000e+00 0.000000000000000e+00
1.162062577135271e-02 -1.107018532270811e-02 -3.677084152971326e-18
1.162062577135271e-02 -7.483722601970494e-19 1.107018532270809e-02
0.000000000000000e+00 0.000000000000000e+00 0.000000000000000e+00
0.000000000000000e+00 0.000000000000000e+00 0.000000000000000e+00
1.162062577135270e-02 -2.114403489169342e-18 -1.107018532270811e-02
1.162062577135271e-02 -1.107018532270811e-02 -3.677084152971326e-18
0.000000000000000e+00 0.000000000000000e+00 0.000000000000000e+00
2.189128926573197e-02 -1.176369302253306e-17 -1.862840109710932e-18
1.162062577135270e-02 -2.114403489169342e-18 -1.107018532270811e-02
1.162062577135270e-02 1.107018532270809e-02 3.172594801835307e-18
2.397089668506289e-02 4.346609034709374e-02 -4.346609034709377e-02
2.189128926573197e-02 -1.176369302253306e-17 -1.862840109710932e-18
1.162062577135270e-02 1.107018532270809e-02 3.172594801835307e-18
1.162062577135271e-02 -7.483722601970494e-19 1.107018532270809e-02
2.397089668506286e-02 4.346609034709373e-02 4.346609034709376e-02
2.189128926573197e-02 -1.176369302253306e-17 -1.862840109710932e-18
1.162062577135271e-02 -7.483722601970494e-19 1.107018532270809e-02
1.162062577135271e-02 -1.107018532270811e-02 -3.677084152971326e-18
2.397089668506296e-02 -4.346609034709376e-02 4.346609034709376e-02
2.189128926573197e-02 -1.176369302253306e-17 -1.862840109710932e-18
1.162062577135271e-02 -1.107018532270811e-02 -3.677084152971326e-18
1.162062577135270e-02 -2.114403489169342e-18 -1.107018532270811e-02
2.397089668506288e-02 -4.346609034709377e-02 -4.346609034709375e-02
0.000000000000000e+00 0.000000000000000e+00 0.000000000000000e+00
1.162062577135270e-02 -2.114403489169342e-18 -1.107018532270811e-02
1.162062577135270e-02 1.107018532270809e-02 3.172594801835307e-18
1.095767441035315e-02 -5.009660344140287e-18 -3.762068058890817e-18
0.000000000000000e+00 0.000000000000000e+00 0.000000000000000e+00
1.162062577135270e-02 1.107018532270809e-02 3.172594801835307e-18
1.162062577135271e-02 -7.483722601970494e-19 1.107018532270809e-02
1.095767441035315e-02 -5.009660344140287e-18 -3.762068058890817e-18
0.000000000000000e+00 0.000000000000000e+00 0.000000000000000e+00
1.162062577135271e-02 -7.483722601970494e-19 1.107018532270809e-02
1.162062577135271e-02 -1.107018532270811e-02 -3.677084152971326e-18
1.095767441035315e-02 -5.009660344140287e-18 -3.762068058890817e-18
0.000000000000000e+00 0.000000000000000e+00 0.000000000000000e+00
1.162062577135271e-02 -1.107018532270811e-02 -3.677084152971326e-18
1.162062577135270e-02 -2.114403489169342e-18 -1.107018532270811e-02
1.095767441035315e-02 -5.009660344140287e-18 -3.762068058890817e-18
2.189128926573197e-02 -1.176369302253306e-17 -1.862840109710932e-18
1.162062577135270e-02 1.107018532270809e-02 3.172594801835307e-18
1.162062577135270e-02 -2.114403489169342e-18 -1.107018532270811e-02
1.095767441035315e-02 -5.009660344140287e-18 -3.762068058890817e-18
2.189128926573197e-02 -1.176369302253306e-17 -1.862840109710932e-18
1.162062577135271e-02 -7.483722601970494e-19 1.107018532270809e-02
1.162062577135270e-02 1.107018532270809e-02 3.172594801835307e-18
1.095767441035315e-02 -5.009660344140287e-18 -3.762068058890817e-18
2.189128926573197e-02 -1.176369302253306e-17 -1.862840109710932e-18
1.162062577135271e-02 -1.107018532270811e-02 -3.677084152971326e-18
1.162062577135271e-02 -7.483722601970494e-19 1.107018532270809e-02
1.095767441035315e-02 -5.009660344140287e-18 -3.762068058890817e-18
2.189128926573197e-02 -1.176369302253306e-17 -1.862840109710932e-18
1.162062577135270e-02 -2.114403489169342e-18 -1.107018532270811e-02
1.162062577135271e-02 -1.107018532270811e-02 -3.677084152971326e-18
1.095767441035315e-02 -5.009660344140287e-18 -3.762068058890817e-18
2.397089668506289e-02 4.346609034709374e-02 -4.346609034709377e-02
2.397089668506286e-02 4.346609034709373e-02 4.346609034709376e-02
2.189128926573197e-02 -1.176369302253306e-17 -1.862840109710932e-18
8.658501556358446e-01 1.029850172168732e-01 -6.138075846731129e-18
2.397089668506286e-02 4.346609034709373e-02 4.346609034709376e-02
2.397089668506296e-02 -4.346609034709376e-02 4.346609034709376e-02
2.189128926573197e-02 -1.176369302253306e-17 -1.862840109710932e-18
8.658501556358446e-01 -5.766283683581924e-18 1.029850172168732e-01
2.397089668506296e-02 -4.346609034709376e-02 4.346609034709376e-02
2.397089668506288e-02 -4.346609034709377e-02 -4.346609034709375e-02
2.189128926573197e-02 -1.176369302253306e-17 -1.862840109710932e-18
8.658501556358446e-01 -1.029850172168732e-01 8.488813282903953e-18
2.397089668506288e-02 -4.346609034709377e-02 -4.346609034709375e-02
2.397089668506289e-02 4.346609034709374e-02 -4.346609034709377e-02
2.189128926573197e-02 -1.176369302253306e-17 -1.862840109710932e-18
8.658501556358446e-01 -9.997724982577702e-18 -1.029850172168732e-01
2.397089668506289e-02 4.346609034709374e-02 -4.346609034709377e-02
1.728674102152755e+00 1.189517680800360e-01 -1.189517680800360e-01
8.658501556358446e-01 1.029850172168732e-01 -6.138075846731129e-18
8.658501556358446e-01 -9.997724982577702e-18 -1.029850172168732e-01
2.397089668506286e-02 4.346609034709373e-02 4.346609034709376e-02
1.728674102152755e+00 1.189517680800361e-01 1.189517680800361e-01
8.658501556358446e-01 -5.766283683581924e-18 1.029850172168732e-01
8.658501556358446e-01 1.029850172168732e-01 -6.138075846731129e-18
2.397089668506296e-02 -4.346609034709376e-02 4.346609034709376e-02
1.728674102152755e+00 -1.189517680800361e-01 1.189517680800360e-01
8.658501556358446e-01 -1.029850172168732e-01 8.488813282903953e-18
8.658501556358446e-01 -5.766283683581924e-18 1.029850172168732e-01
2.397089668506288e-02 -4.346609034709377e-02 -4.346609034709375e-02
1.728674102152755e+00 -1.189517680800360e-01 -1.189517680800360e-01
8.658501556358446e-01 -9.997724982577702e-18 -1.029850172168732e-01
8.658501556358446e-01 -1.029850172168732e-01 8.488813282903953e-18
1.728674102152755e+00 1.189517680800360e-01 -1.189517680800360e-01
1.728674102152755e+00 1.189517680800361e-01 1.189517680800361e-01
8.658501556358446e-01 1.029850172168732e-01 -6.138075846731129e-18
1.724683396033342e+00 -3.407080175356539e-17 -4.143853252346516e-18
1.728674102152755e+00 1.189517680800361e-01 1.189517680800361e-01
1.728674102152755e+00 -1.189517680800361e-01 1.189517680800360e-01
8.658501556358446e-01 -5.766283683581924e-18 1.029850172168732e-01
1.724683396033342e+00 -3.407080175356539e-17 -4.143853252346516e-18
1.728674102152755e+00 -1.189517680800361e-01 1.189517680800360e-01
1.728674102152755e+00 -1.189517680800360e-01 -1.189517680800360e-01
8.658501556358446e-01 -1.029850172168732e-01 8.488813282903953e-18
1.724683396033342e+00 -3.407080175356539e-17 -4.143853252346516e-18
1.728674102152755e+00 -1.189517680800360e-01 -1.189517680800360e-01
1.728674102152755e+00 1.189517680800360e-01 -1.189517680800360e-01
8.658501556358446e-01 -9.997724982577702e-18 -1.029850172168732e-01
1.724683396033342e+00 -3.407080175356539e-17 -4.143853252346516e-18
2.189128926573197e-02 -1.176369302253306e-17 -1.862840109710932e-18
8.658501556358446e-01 1.029850172168732e-01 -6.138075846731129e-18
8.658501556358446e-01 -9.997724982577702e-18 -1.029850172168732e-01
2.397089668506289e-02 4.346609034709374e-02 -4.346609034709377e-02
2.189128926573197e-02 -1.176369302253306e-17 -1.862840109710932e-18
8.658501556358446e-01 -5.766283683581924e-18 1.029850172168732e-01
8.658501556358446e-01 1.029850172168732e-01 -6.138075846731129e-18
2.397089668506286e-02 4.346609034709373e-02 4.346609034709376e-02
2.189128926573197e-02 -1.176369302253306e-17 -1.862840109710932e-18
8.658501556358446e-01 -1.029850172168732e-01 8.488813282903953e-18
8.658501556358446e-01 -5.766283683581924e-18 1.029850172168732e-01
2.397089668506296e-02 -4.346609034709376e-02 4.346609034709376e-02
2.189128926573197e-02 -1.176369302253306e-17 -1.862840109710932e-18
8.658501556358446e-01 -9.997724982577702e-18 -1.029850172168732e-01
8.658501556358446e-01 -1.029850172168732e-01 8.488813282903953e-18
2.397089668506288e-02 -4.346609034709377e-02 -4.346609034709375e-02
1.724683396033342e+00 -3.407080175356539e-17 -4.143853252346516e-18
8.658501556358446e-01 -9.997724982577702e-18 -1.029850172168732e-01
8.658501556358446e-01 1.029850172168732e-01 -6.138075846731129e-18
1.728674102152755e+00 1.189517680800360e-01 -1.189517680800360e-01
1.724683396033342e+00 -3.407080175356539e-17 -4.143853252346516e-18
8.658501556358446e-01 1.029850172168732e-01 -6.138075846731129e-18
8.658501556358446e-01 -5.766283683581924e-18 1.029850172168732e-01
1.728674102152755e+00 1.189517680800361e-01 1.189517680800361e-01
1.724683396033342e+00 -3.407080175356539e-17 -4.143853252346516e-18
8.658501556358446e-01 -5.766283683581924e-18 1.029850172168732e-01
8.658501556358446e-01 -1.029850172168732e-01 8.488813282903953e-18
1.728674102152755e+00 -1.189517680800361e-01 1.189517680800360e-01
1.724683396033342e+00 -3.407080175356539e-17 -4.143853252346516e-18
8.658501556358446e-01 -1.029850172168732e-01 8.488813282903953e-18
8.658501556358446e-01 -9.997724982577702e-18 -1.029850172168732e-01
1.728674102152755e+00 -1.189517680800360e-01 -1.189517680800360e-01
2.189128926573197e-02 -1.176369302253306e-17 -1.862840109710932e-18
8.658501556358446e-01 -9.997724982577702e-18 -1.029850172168732e-01
8.658501556358446e-01 1.029850172168732e-01 -6.138075846731129e-18
8.685812567783902e-01 -1.240151423896675e-17 7.818323099388771e-18
2.189128926573197e-02 -1.176369302253306e-17 -1.862840109710932e-18
8.658501556358446e-01 1.029850172168732e-01 -6.138075846731129e-18
8.658501556358446e-01 -5.766283683581924e-18 1.029850172168732e-01
8.685812567783902e-01 -1.240151423896675e-17 7.818323099388771e-18
2.189128926573197e-02 -1.176369302253306e-17 -1.862840109710932e-18
8.658501556358446e-01 -5.766283683581924e-18 1.029850172168732e-01
8.658501556358446e-01 -1.029850172168732e-01 8.488813282903953e-18
8.685812567783902e-01 -1.240151423896675e-17 7.818323099388771e-18
2.189128926573197e-02 -1.176369302253306e-17 -1.862840109710932e-18
8.658501556358446e-01 -1.029850172168732e-01 8.488813282903953e-18
8.658501556358446e-01 -9.997724982577702e-18 -1.029850172168732e-01
8.685812567783902e-01 -1.240151423896675e-17 7.818323099388771e-18
1.724683396033342e+00 -3.407080175356539e-17 -4.143853252346516e-18
8.658501556358446e-01 1.029850172168732e-01 -6.138075846731129e-18
8.658501556358446e-01 -9.997724982577702e-18 -1.029850172168732e-01
8.685812567783902e-01 -1.240151423896675e-17 7.818323099388771e-18
1.724683396033342e+00 -3.407080175356539e-17 -4.143853252346516e-18
8.658501556358446e-01 -5.766283683581924e-18 1.029850172168732e-01
8.658501556358446e-01 1.029850172168732e-01 -6.138075846731129e-18
8.685812567783902e-01 -1.240151423896675e-17 7.818323099388771e-18
1.724683396033342e+00 -3.407080175356539e-17 -4.143853252346516e-18
8.658501556358446e-01 -1.029850172168732e-01 8.488813282903953e-18
8.658501556358446e-01 -5.766283683581924e-18 1.029850172168732e-01
8.685812567783902e-01 -1.240151423896675e-17 7.818323099388771e-18
1.724683396033342e+00 -3.407080175356539e-17 -4.143853252346516e-18
8.658501556358446e-01 -9.997724982577702e-18 -1.029850172168732e-01
8.658501556358446e-01 -1.029850172168732e-01 8.488813282903953e-18
8.685812567783902e-01 -1.240151423896675e-17 7.818323099388771e-18
2.656388280388691e-02 4.054472340721572e-02 -4.054472340721579e-02
1.734009078416585e+00 1.053649325542099e-01 -1.053649325542100e-01
8.749974750260131e-01 1.086403888110790e-01 -1.017687505297503e-18
8.749974750260132e-01 1.804022561457103e-17 -1.086403888110789e-01
8.771078291226461e-01 1.083929366922983e-01 -1.083929366922980e-01
1.305212477848812e+00 1.099339206705241e-01 -5.548916906483729e-02
4.470574266630172e-01 9.393420055389988e-02 -3.875234657931789e-02
4.470574266630168e-01 3.875234657931798e-02 -9.393420055389977e-02
1.305212477848812e+00 5.548916906483740e-02 -1.099339206705240e-01
8.738964318255875e-01 5.445100298412006e-02 -5.445100298411998e-02
2.656388280388704e-02 4.054472340721577e-02 4.054472340721575e-02
1.734009078416583e+00 1.053649325542099e-01 1.053649325542095e-01
8.749974750260127e-01 3.546246153828103e-17 1.086403888110788e-01
8.749974750260131e-01 1.086403888110790e-01 -1.017687505297503e-18
8.771078291226454e-01 1.083929366922982e-01 1.083929366922981e-01
1.305212477848811e+00 5.548916906483736e-02 1.099339206705238e-01
4.470574266630170e-01 3.875234657931793e-02 9.393420055389978e-02
4.470574266630168e-01 9.393420055389980e-02 3.875234657931793e-02
1.305212477848811e+00 1.099339206705240e-01 5.548916906483719e-02
8.738964318255870e-01 5.445100298412003e-02 5.445100298411992e-02
2.656388280388699e-02 -4.054472340721579e-02 4.054472340721568e-02
1.734009078416584e+00 -1.053649325542098e-01 1.053649325542094e-01
8.749974750260127e-01 -1.086403888110787e-01 -8.831066798245644e-17
8.749974750260127e-01 3.546246153828103e-17 1.086403888110788e-01
8.771078291226446e-01 -1.083929366922980e-01 1.083929366922981e-01
1.305212477848812e+00 -1.099339206705239e-01 5.548916906483720e-02
4.470574266630161e-01 -9.393420055389974e-02 3.875234657931789e-02
4.470574266630168e-01 -3.875234657931790e-02 9.393420055389975e-02
1.305212477848812e+00 -5.548916906483727e-02 1.099339206705238e-01
8.738964318255870e-01 -5.445100298411986e-02 5.445100298411991e-02
2.656388280388699e-02 -4.054472340721581e-02 -4.054472340721574e-02
1.734009078416587e+00 -1.053649325542100e-01 -1.053649325542100e-01
8.749974750260132e-01 1.804022561457103e-17 -1.086403888110789e-01
8.749974750260127e-01 -1.086403888110787e-01 -8.831066798245644e-17
8.771078291226454e-01 -1.083929366922980e-01 -1.083929366922982e-01
1.305212477848813e+00 -5.548916906483721e-02 -1.099339206705241e-01
4.470574266630173e-01 -3.875234657931789e-02 -9.393420055389987e-02
4.470574266630169e-01 -9.393420055389975e-02 -3.875234657931797e-02
1.305212477848813e+00 -1.099339206705240e-01 -5.548916906483740e-02
8.738964318255873e-01 -5.445100298411985e-02 -5.445100298412001e-02
1.734009078416585e+00 1.053649325542099e-01 -1.053649325542100e-01
1.734009078416583e+00 1.053649325542099e-01 1.053649325542095e-01
8.749974750260131e-01 1.086403888110790e-01 -1.017687505297503e-18
1.735467585663073e+00 -9.832310921783654e-17 -1.764946967801547e-16
1.734992064819241e+00 1.103319182930753e-01 -1.610806742448826e-16
1.305212477848811e+00 1.099339206705240e-01 5.548916906483719e-02
1.305212477848812e+00 1.099339206705241e-01 -5.548916906483729e-02
1.735123260244414e+00 5.369130457002440e-02 -5.369130457002461e-02
1.735123260244413e+00 5.369130457002439e-02 5.369130457002422e-02
1.304239868387234e+00 5.537984787141820e-02 -7.899786082143541e-17
1.734009078416583e+00 1.053649325542099e-01 1.053649325542095e-01
1.734009078416584e+00 -1.053649325542098e-01 1.053649325542094e-01
8.749974750260127e-01 3.546246153828103e-17 1.086403888110788e-01
1.735467585663073e+00 -9.832310921783654e-17 -1.764946967801547e-16
1.734992064819242e+00 -1.237998853772535e-17 1.103319182930752e-01
1.305212477848812e+00 -5.548916906483727e-02 1.099339206705238e-01