<?xml version="1.0" ?> 
<!-- 
# vtk DataFile Version 3.0
-->
<VTKFile type="UnstructuredGrid" version="0.1" compressor="vtkZLibDataCompressor" byte_order="LittleEndian">
  <UnstructuredGrid>
    <FieldData>
      <DataArray type="Float64" Name="TIME" NumberOfTuples="1" format="ascii">
1.000000000000000e+00 
      </DataArray>
    </FieldData>

    <Piece NumberOfPoints="360" NumberOfCells="36" >
      <Points>
        <DataArray type="Float64" NumberOfComponents="3" format="ascii">
0.000000000000000e+00 3.000000000000000e+00 1.000000000000000e+00
0.000000000000000e+00 3.000000000000000e+00 0.000000000000000e+00
0.000000000000000e+00 3.500000000000000e+00 5.000000000000000e-01
5.000000000000000e-01 3.000000000000000e+00 5.000000000000000e-01
0.000000000000000e+00 3.000000000000000e+00 5.000000000000000e-01
0.000000000000000e+00 3.250000000000000e+00 2.500000000000000e-01
0.000000000000000e+00 3.250000000000000e+00 7.500000000000000e-01
2.500000000000000e-01 3.000000000000000e+00 7.500000000000000e-01
2.500000000000000e-01 3.000000000000000e+00 2.500000000000000e-01
2.500000000000000e-01 3.250000000000000e+00 5.000000000000000e-01
0.000000000000000e+00 3.000000000000000e+00 0.000000000000000e+00
0.000000000000000e+00 4.000000000000000e+00 0.000000000000000e+00
0.000000000000000e+00 3.500000000000000e+00 5.000000000000000e-01
5.000000000000000e-01 3.500000000000000e+00 0.000000000000000e+00
0.000000000000000e+00 3.500000000000000e+00 0.000000000000000e+00
0.000000000000000e+00 3.750000000000000e+00 2.500000000000000e-01
0.000000000000000e+00 3.250000000000000e+00 2.500000000000000e-01
2.500000000000000e-01 3.250000000000000e+00 0.000000000000000e+00
2.500000000000000e-01 3.750000000000000e+00 0.000000000000000e+00
2.500000000000000e-01 3.500000000000000e+00 2.500000000000000e-01
0.000000000000000e+00 4.000000000000000e+00 0.000000000000000e+00
0.000000000000000e+00 4.000000000000000e+00 1.000000000000000e+00
0.000000000000000e+00 3.500000000000000e+00 5.000000000000000e-01
5.000000000000000e-01 4.000000000000000e+00 5.000000000000000e-01
0.000000000000000e+00 4.000000000000000e+00 5.000000000000000e-01
0.000000000000000e+00 3.750000000000000e+00 7.500000000000000e-01
0.000000000000000e+00 3.750000000000000e+00 2.500000000000000e-01
2.500000000000000e-01 4.000000000000000e+00 2.500000000000000e-01
2.500000000000000e-01 4.000000000000000e+00 7.500000000000000e-01
2.500000000000000e-01 3.750000000000000e+00 5.000000000000000e-01
0.000000000000000e+00 4.000000000000000e+00 1.000000000000000e+00
0.000000000000000e+00 3.000000000000000e+00 1.000000000000000e+00
0.000000000000000e+00 3.500000000000000e+00 5.000000000000000e-01
5.000000000000000e-01 3.500000000000000e+00 1.000000000000000e+00
0.000000000000000e+00 3.500000000000000e+00 1.000000000000000e+00
0.000000000000000e+00 3.250000000000000e+00 7.500000000000000e-01
0.000000000000000e+00 3.750000000000000e+00 7.500000000000000e-01
2.500000000000000e-01 3.750000000000000e+00 1.000000000000000e+00
2.500000000000000e-01 3.250000000000000e+00 1.000000000000000e+00
2.500000000000000e-01 3.500000000000000e+00 7.500000000000000e-01
0.000000000000000e+00 3.000000000000000e+00 1.000000000000000e+00
1.000000000000000e+00 3.000000000000000e+00 1.000000000000000e+00
5.000000000000000e-01 3.000000000000000e+00 5.000000000000000e-01
5.000000000000000e-01 3.500000000000000e+00 1.000000000000000e+00
5.000000000000000e-01 3.000000000000000e+00 1.000000000000000e+00
7.500000000000000e-01 3.000000000000000e+00 7.500000000000000e-01
2.500000000000000e-01 3.000000000000000e+00 7.500000000000000e-01
2.500000000000000e-01 3.250000000000000e+00 1.000000000000000e+00
7.500000000000000e-01 3.250000000000000e+00 1.000000000000000e+00
5.000000000000000e-01 3.250000000000000e+00 7.500000000000000e-01
0.000000000000000e+00 3.000000000000000e+00 0.000000000000000e+00
1.000000000000000e+00 3.000000000000000e+00 0.000000000000000e+00
5.000000000000000e-01 3.500000000000000e+00 0.000000000000000e+00
5.000000000000000e-01 3.000000000000000e+00 5.000000000000000e-01
5.000000000000000e-01 3.000000000000000e+00 0.000000000000000e+00
7.500000000000000e-01 3.250000000000000e+00 0.000000000000000e+00
2.500000000000000e-01 3.250000000000000e+00 0.000000000000000e+00
2.500000000000000e-01 3.000000000000000e+00 2.500000000000000e-01
7.500000000000000e-01 3.000000000000000e+00 2.500000000000000e-01
5.000000000000000e-01 3.250000000000000e+00 2.500000000000000e-01
0.000000000000000e+00 4.000000000000000e+00 0.000000000000000e+00
1.000000000000000e+00 4.000000000000000e+00 0.000000000000000e+00
5.000000000000000e-01 4.000000000000000e+00 5.000000000000000e-01
5.000000000000000e-01 3.500000000000000e+00 0.000000000000000e+00
5.000000000000000e-01 4.000000000000000e+00 0.000000000000000e+00
7.500000000000000e-01 4.000000000000000e+00 2.500000000000000e-01
2.500000000000000e-01 4.000000000000000e+00 2.500000000000000e-01
2.500000000000000e-01 3.750000000000000e+00 0.000000000000000e+00
7.500000000000000e-01 3.750000000000000e+00 0.000000000000000e+00
5.000000000000000e-01 3.750000000000000e+00 2.500000000000000e-01
0.000000000000000e+00 4.000000000000000e+00 1.000000000000000e+00
1.000000000000000e+00 4.000000000000000e+00 1.000000000000000e+00
5.000000000000000e-01 3.500000000000000e+00 1.000000000000000e+00
5.000000000000000e-01 4.000000000000000e+00 5.000000000000000e-01
5.000000000000000e-01 4.000000000000000e+00 1.000000000000000e+00
7.500000000000000e-01 3.750000000000000e+00 1.000000000000000e+00
2.500000000000000e-01 3.750000000000000e+00 1.000000000000000e+00
2.500000000000000e-01 4.000000000000000e+00 7.500000000000000e-01
7.500000000000000e-01 4.000000000000000e+00 7.500000000000000e-01
5.000000000000000e-01 3.750000000000000e+00 7.500000000000000e-01
1.000000000000000e+00 3.000000000000000e+00 1.000000000000000e+00
1.000000000000000e+00 3.000000000000000e+00 0.000000000000000e+00
5.000000000000000e-01 3.000000000000000e+00 5.000000000000000e-01
1.000000000000000e+00 3.500000000000000e+00 5.000000000000000e-01
1.000000000000000e+00 3.000000000000000e+00 5.000000000000000e-01
7.500000000000000e-01 3.000000000000000e+00 2.500000000000000e-01
7.500000000000000e-01 3.000000000000000e+00 7.500000000000000e-01
1.000000000000000e+00 3.250000000000000e+00 7.500000000000000e-01
1.000000000000000e+00 3.250000000000000e+00 2.500000000000000e-01
7.500000000000000e-01 3.250000000000000e+00 5.000000000000000e-01
1.000000000000000e+00 3.000000000000000e+00 0.000000000000000e+00
1.000000000000000e+00 4.000000000000000e+00 0.000000000000000e+00
5.000000000000000e-01 3.500000000000000e+00 0.000000000000000e+00
1.000000000000000e+00 3.500000000000000e+00 5.000000000000000e-01
1.000000000000000e+00 3.500000000000000e+00 0.000000000000000e+00
7.500000000000000e-01 3.750000000000000e+00 0.000000000000000e+00
7.500000000000000e-01 3.250000000000000e+00 0.000000000000000e+00
1.000000000000000e+00 3.250000000000000e+00 2.500000000000000e-01
1.000000000000000e+00 3.750000000000000e+00 2.500000000000000e-01
7.500000000000000e-01 3.500000000000000e+00 2.500000000000000e-01
1.000000000000000e+00 4.000000000000000e+00 0.000000000000000e+00
1.000000000000000e+00 4.000000000000000e+00 1.000000000000000e+00
5.000000000000000e-01 4.000000000000000e+00 5.000000000000000e-01
1.000000000000000e+00 3.500000000000000e+00 5.000000000000000e-01
1.000000000000000e+00 4.000000000000000e+00 5.000000000000000e-01
7.500000000000000e-01 4.000000000000000e+00 7.500000000000000e-01
7.500000000000000e-01 4.000000000000000e+00 2.500000000000000e-01
1.000000000000000e+00 3.750000000000000e+00 2.500000000000000e-01
1.000000000000000e+00 3.750000000000000e+00 7.500000000000000e-01
7.500000000000000e-01 3.750000000000000e+00 5.000000000000000e-01
1.000000000000000e+00 4.000000000000000e+00 1.000000000000000e+00
1.000000000000000e+00 3.000000000000000e+00 1.000000000000000e+00
5.000000000000000e-01 3.500000000000000e+00 1.000000000000000e+00
1.000000000000000e+00 3.500000000000000e+00 5.000000000000000e-01
1.000000000000000e+00 3.500000000000000e+00 1.000000000000000e+00
7.500000000000000e-01 3.250000000000000e+00 1.000000000000000e+00
7.500000000000000e-01 3.750000000000000e+00 1.000000000000000e+00
1.000000000000000e+00 3.750000000000000e+00 7.500000000000000e-01
1.000000000000000e+00 3.250000000000000e+00 7.500000000000000e-01
7.500000000000000e-01 3.500000000000000e+00 7.500000000000000e-01
0.000000000000000e+00 3.500000000000000e+00 5.000000000000000e-01
5.000000000000000e-01 3.000000000000000e+00 5.000000000000000e-01
5.000000000000000e-01 3.500000000000000e+00 1.000000000000000e+00
0.000000000000000e+00 3.000000000000000e+00 1.000000000000000e+00
2.500000000000000e-01 3.250000000000000e+00 5.000000000000000e-01
5.000000000000000e-01 3.250000000000000e+00 7.500000000000000e-01
2.500000000000000e-01 3.500000000000000e+00 7.500000000000000e-01
0.000000000000000e+00 3.250000000000000e+00 7.500000000000000e-01
2.500000000000000e-01 3.000000000000000e+00 7.500000000000000e-01
2.500000000000000e-01 3.250000000000000e+00 1.000000000000000e+00
0.000000000000000e+00 3.500000000000000e+00 5.000000000000000e-01
5.000000000000000e-01 3.500000000000000e+00 0.000000000000000e+00
5.000000000000000e-01 3.000000000000000e+00 5.000000000000000e-01
0.000000000000000e+00 3.000000000000000e+00 0.000000000000000e+00
2.500000000000000e-01 3.500000000000000e+00 2.500000000000000e-01
5.000000000000000e-01 3.250000000000000e+00 2.500000000000000e-01
2.500000000000000e-01 3.250000000000000e+00 5.000000000000000e-01
0.000000000000000e+00 3.250000000000000e+00 2.500000000000000e-01
2.500000000000000e-01 3.250000000000000e+00 0.000000000000000e+00
2.500000000000000e-01 3.000000000000000e+00 2.500000000000000e-01
0.000000000000000e+00 3.500000000000000e+00 5.000000000000000e-01
5.000000000000000e-01 4.000000000000000e+00 5.000000000000000e-01
5.000000000000000e-01 3.500000000000000e+00 0.000000000000000e+00
0.000000000000000e+00 4.000000000000000e+00 0.000000000000000e+00
[...]
  <PointData>
        <DataArray type="Float64" Name="displacement" NumberOfComponents="3" format="ascii">
0.000000000000000e+00 0.000000000000000e+00 0.000000000000000e+00
0.000000000000000e+00 0.000000000000000e+00 0.000000000000000e+00
0.000000000000000e+00 0.000000000000000e+00 0.000000000000000e+00
1.263037367442428e-02 6.699942894691413e-03 1.595113797837748e-17
0.000000000000000e+00 0.000000000000000e+00 0.000000000000000e+00
0.000000000000000e+00 0.000000000000000e+00 0.000000000000000e+00
0.000000000000000e+00 0.000000000000000e+00 0.000000000000000e+00
6.487036608842928e-03 3.313241961754792e-03 -1.647954970454258e-03
6.487036608842915e-03 3.313241961754775e-03 1.647954970454275e-03
5.381986458432520e-03 1.707144947572330e-03 1.044433112682939e-18
0.000000000000000e+00 0.000000000000000e+00 0.000000000000000e+00
0.000000000000000e+00 0.000000000000000e+00 0.000000000000000e+00
0.000000000000000e+00 0.000000000000000e+00 0.000000000000000e+00
1.263037367442423e-02 -1.236458984899594e-17 6.699942894691391e-03
0.000000000000000e+00 0.000000000000000e+00 0.000000000000000e+00
0.000000000000000e+00 0.000000000000000e+00 0.000000000000000e+00
0.000000000000000e+00 0.000000000000000e+00 0.000000000000000e+00
6.487036608842914e-03 1.647954970454257e-03 3.313241961754777e-03
6.487036608842889e-03 -1.647954970454272e-03 3.313241961754780e-03
5.381986458432525e-03 -1.227843926827652e-18 1.707144947572327e-03
0.000000000000000e+00 0.000000000000000e+00 0.000000000000000e+00
0.000000000000000e+00 0.000000000000000e+00 0.000000000000000e+00
0.000000000000000e+00 0.000000000000000e+00 0.000000000000000e+00
1.263037367442427e-02 -6.699942894691379e-03 -2.052888104011745e-17
0.000000000000000e+00 0.000000000000000e+00 0.000000000000000e+00
0.000000000000000e+00 0.000000000000000e+00 0.000000000000000e+00
0.000000000000000e+00 0.000000000000000e+00 0.000000000000000e+00
6.487036608842904e-03 -3.313241961754774e-03 1.647954970454256e-03
6.487036608842894e-03 -3.313241961754767e-03 -1.647954970454271e-03
5.381986458432526e-03 -1.707144947572324e-03 -7.351871224085019e-18
0.000000000000000e+00 0.000000000000000e+00 0.000000000000000e+00
0.000000000000000e+00 0.000000000000000e+00 0.000000000000000e+00
0.000000000000000e+00 0.000000000000000e+00 0.000000000000000e+00
1.263037367442428e-02 3.793992493608963e-18 -6.699942894691403e-03
0.000000000000000e+00 0.000000000000000e+00 0.000000000000000e+00
0.000000000000000e+00 0.000000000000000e+00 0.000000000000000e+00
0.000000000000000e+00 0.000000000000000e+00 0.000000000000000e+00
6.487036608842913e-03 -1.647954970454265e-03 -3.313241961754786e-03
6.487036608842912e-03 1.647954970454275e-03 -3.313241961754775e-03
5.381986458432514e-03 3.938548758521218e-18 -1.707144947572331e-03
0.000000000000000e+00 0.000000000000000e+00 0.000000000000000e+00
2.656388280388691e-02 4.054472340721572e-02 -4.054472340721579e-02
1.263037367442428e-02 6.699942894691413e-03 1.595113797837748e-17
1.263037367442428e-02 3.793992493608963e-18 -6.699942894691403e-03
1.431958876042721e-02 8.122754273968547e-03 -8.122754273968543e-03
1.916813356510507e-02 1.628928253631389e-02 -1.264946415394906e-02
6.487036608842928e-03 3.313241961754792e-03 -1.647954970454258e-03
6.487036608842912e-03 1.647954970454275e-03 -3.313241961754775e-03
1.916813356510507e-02 1.264946415394908e-02 -1.628928253631387e-02
1.130030557453813e-02 4.559614254024868e-03 -4.559614254024845e-03
0.000000000000000e+00 0.000000000000000e+00 0.000000000000000e+00
2.656388280388704e-02 4.054472340721577e-02 4.054472340721575e-02
1.263037367442423e-02 -1.236458984899594e-17 6.699942894691391e-03
1.263037367442428e-02 6.699942894691413e-03 1.595113797837748e-17
1.431958876042728e-02 8.122754273968507e-03 8.122754273968540e-03
1.916813356510504e-02 1.264946415394905e-02 1.628928253631386e-02
6.487036608842914e-03 1.647954970454257e-03 3.313241961754777e-03
6.487036608842915e-03 3.313241961754775e-03 1.647954970454275e-03
1.916813356510508e-02 1.628928253631387e-02 1.264946415394909e-02
1.130030557453815e-02 4.559614254024846e-03 4.559614254024851e-03
0.000000000000000e+00 0.000000000000000e+00 0.000000000000000e+00
2.656388280388699e-02 -4.054472340721579e-02 4.054472340721568e-02
1.263037367442427e-02 -6.699942894691379e-03 -2.052888104011745e-17
1.263037367442423e-02 -1.236458984899594e-17 6.699942894691391e-03
1.431958876042716e-02 -8.122754273968507e-03 8.122754273968542e-03
1.916813356510512e-02 -1.628928253631389e-02 1.264946415394904e-02
6.487036608842904e-03 -3.313241961754774e-03 1.647954970454256e-03
6.487036608842889e-03 -1.647954970454272e-03 3.313241961754780e-03
1.916813356510503e-02 -1.264946415394909e-02 1.628928253631383e-02
1.130030557453814e-02 -4.559614254024851e-03 4.559614254024836e-03
0.000000000000000e+00 0.000000000000000e+00 0.000000000000000e+00
2.656388280388699e-02 -4.054472340721581e-02 -4.054472340721574e-02
1.263037367442428e-02 3.793992493608963e-18 -6.699942894691403e-03
1.263037367442427e-02 -6.699942894691379e-03 -2.052888104011745e-17
1.431958876042719e-02 -8.122754273968509e-03 -8.122754273968523e-03
1.916813356510507e-02 -1.264946415394906e-02 -1.628928253631387e-02
6.487036608842913e-03 -1.647954970454265e-03 -3.313241961754786e-03
6.487036608842894e-03 -3.313241961754767e-03 -1.647954970454271e-03
1.916813356510511e-02 -1.628928253631387e-02 -1.264946415394908e-02
1.130030557453813e-02 -4.559614254024835e-03 -4.559614254024849e-03
2.656388280388691e-02 4.054472340721572e-02 -4.054472340721579e-02
2.656388280388704e-02 4.054472340721577e-02 4.054472340721575e-02
1.263037367442428e-02 6.699942894691413e-03 1.595113797837748e-17
2.262161011632441e-02 -3.670043282405790e-17 -1.100610011701407e-17
2.425831298711764e-02 3.927425341100561e-02 3.436308387524650e-17
1.916813356510508e-02 1.628928253631387e-02 1.264946415394909e-02
1.916813356510507e-02 1.628928253631389e-02 -1.264946415394906e-02
2.251411779120402e-02 1.911598551203670e-02 -1.911598551203668e-02
2.251411779120404e-02 1.911598551203669e-02 1.911598551203668e-02
1.640222713167661e-02 1.128710662351276e-02 1.020110753487106e-17
2.656388280388704e-02 4.054472340721577e-02 4.054472340721575e-02
2.656388280388699e-02 -4.054472340721579e-02 4.054472340721568e-02
1.263037367442423e-02 -1.236458984899594e-17 6.699942894691391e-03
2.262161011632441e-02 -3.670043282405790e-17 -1.100610011701407e-17
2.425831298711763e-02 -2.221408203366578e-17 3.927425341100554e-02
1.916813356510503e-02 -1.264946415394909e-02 1.628928253631383e-02
1.916813356510504e-02 1.264946415394905e-02 1.628928253631386e-02
2.251411779120404e-02 1.911598551203669e-02 1.911598551203668e-02
2.251411779120404e-02 -1.911598551203672e-02 1.911598551203665e-02
1.640222713167661e-02 -1.885620211405886e-17 1.128710662351273e-02
2.656388280388699e-02 -4.054472340721579e-02 4.054472340721568e-02
2.656388280388699e-02 -4.054472340721581e-02 -4.054472340721574e-02
1.263037367442427e-02 -6.699942894691379e-03 -2.052888104011745e-17
2.262161011632441e-02 -3.670043282405790e-17 -1.100610011701407e-17
2.425831298711770e-02 -3.927425341100561e-02 -1.804086935545207e-17
1.916813356510511e-02 -1.628928253631387e-02 -1.264946415394908e-02
1.916813356510512e-02 -1.628928253631389e-02 1.264946415394904e-02
2.251411779120404e-02 -1.911598551203672e-02 1.911598551203665e-02
2.251411779120402e-02 -1.911598551203670e-02 -1.911598551203669e-02
1.640222713167662e-02 -1.128710662351274e-02 -1.898610867982634e-17
2.656388280388699e-02 -4.054472340721581e-02 -4.054472340721574e-02
2.656388280388691e-02 4.054472340721572e-02 -4.054472340721579e-02
1.263037367442428e-02 3.793992493608963e-18 -6.699942894691403e-03
2.262161011632441e-02 -3.670043282405790e-17 -1.100610011701407e-17
2.425831298711763e-02 3.566735383684974e-17 -3.927425341100556e-02
1.916813356510507e-02 1.264946415394908e-02 -1.628928253631387e-02
1.916813356510507e-02 -1.264946415394906e-02 -1.628928253631387e-02
2.251411779120402e-02 -1.911598551203670e-02 -1.911598551203669e-02
2.251411779120402e-02 1.911598551203670e-02 -1.911598551203668e-02
1.640222713167661e-02 1.788538118951844e-17 -1.128710662351275e-02
0.000000000000000e+00 0.000000000000000e+00 0.000000000000000e+00
1.263037367442428e-02 6.699942894691413e-03 1.595113797837748e-17
1.263037367442428e-02 3.793992493608963e-18 -6.699942894691403e-03
0.000000000000000e+00 0.000000000000000e+00 0.000000000000000e+00
5.381986458432520e-03 1.707144947572330e-03 1.044433112682939e-18
1.130030557453813e-02 4.559614254024868e-03 -4.559614254024845e-03
5.381986458432514e-03 3.938548758521218e-18 -1.707144947572331e-03
0.000000000000000e+00 0.000000000000000e+00 0.000000000000000e+00
6.487036608842928e-03 3.313241961754792e-03 -1.647954970454258e-03
6.487036608842912e-03 1.647954970454275e-03 -3.313241961754775e-03
0.000000000000000e+00 0.000000000000000e+00 0.000000000000000e+00
1.263037367442423e-02 -1.236458984899594e-17 6.699942894691391e-03
1.263037367442428e-02 6.699942894691413e-03 1.595113797837748e-17
0.000000000000000e+00 0.000000000000000e+00 0.000000000000000e+00
5.381986458432525e-03 -1.227843926827652e-18 1.707144947572327e-03
1.130030557453815e-02 4.559614254024846e-03 4.559614254024851e-03
5.381986458432520e-03 1.707144947572330e-03 1.044433112682939e-18
0.000000000000000e+00 0.000000000000000e+00 0.000000000000000e+00
6.487036608842914e-03 1.647954970454257e-03 3.313241961754777e-03
6.487036608842915e-03 3.313241961754775e-03 1.647954970454275e-03
0.000000000000000e+00 0.000000000000000e+00 0.000000000000000e+00
1.263037367442427e-02 -6.699942894691379e-03 -2.052888104011745e-17
1.263037367442423e-02 -1.236458984899594e-17 6.699942894691391e-03
0.000000000000000e+00 0.000000000000000e+00 0.000000000000000e+00
5.381986458432526e-03 -1.707144947572324e-03 -7.351871224085019e-18
1.130030557453814e-02 -4.559614254024851e-03 4.559614254024836e-03
5.381986458432525e-03 -1.227843926827652e-18 1.707144947572327e-03
0.000000000000000e+00 0.000000000000000e+00 0.000000000000000e+00
6.487036608842904e-03 -3.313241961754774e-03 1.647954970454256e-03
6.487036608842889e-03 -1.647954970454272e-03 3.313241961754780e-03
0.000000000000000e+00 0.000000000000000e+00 0.000000000000000e+00
1.263037367442428e-02 3.793992493608963e-18 -6.699942894691403e-03
1.263037367442427e-02 -6.699942894691379e-03 -2.052888104011745e-17
0.000000000000000e+00 0.000000000000000e+00 0.000000000000000e+00
5.381986458432514e-03 3.938548758521218e-18 -1.707144947572331e-03
1.130030557453813e-02 -4.559614254024835e-03 -4.559614254024849e-03
5.381986458432526e-03 -1.707144947572324e-03 -7.351871224085019e-18
0.000000000000000e+00 0.000000000000000e+00 0.000000000000000e+00
6.487036608842913e-03 -1.647954970454265e-03 -3.313241961754786e-03
6.487036608842894e-03 -3.313241961754767e-03 -1.647954970454271e-03
2.262161011632441e-02 -3.670043282405790e-17 -1.100610011701407e-17
1.263037367442428e-02 3.793992493608963e-18 -6.699942894691403e-03
1.263037367442428e-02 6.699942894691413e-03 1.595113797837748e-17
2.656388280388691e-02 4.054472340721572e-02 -4.054472340721579e-02
1.640222713167661e-02 1.788538118951844e-17 -1.128710662351275e-02
1.130030557453813e-02 4.559614254024868e-03 -4.559614254024845e-03
1.640222713167661e-02 1.128710662351276e-02 1.020110753487106e-17
2.251411779120402e-02 1.911598551203670e-02 -1.911598551203668e-02
1.916813356510507e-02 1.264946415394908e-02 -1.628928253631387e-02
1.916813356510507e-02 1.628928253631389e-02 -1.264946415394906e-02
2.262161011632441e-02 -3.670043282405790e-17 -1.100610011701407e-17
1.263037367442428e-02 6.699942894691413e-03 1.595113797837748e-17
1.263037367442423e-02 -1.236458984899594e-17 6.699942894691391e-03
2.656388280388704e-02 4.054472340721577e-02 4.054472340721575e-02
1.640222713167661e-02 1.128710662351276e-02 1.020110753487106e-17
1.130030557453815e-02 4.559614254024846e-03 4.559614254024851e-03
1.640222713167661e-02 -1.885620211405886e-17 1.128710662351273e-02
2.251411779120404e-02 1.911598551203669e-02 1.911598551203668e-02
1.916813356510508e-02 1.628928253631387e-02 1.264946415394909e-02
1.916813356510504e-02 1.264946415394905e-02 1.628928253631386e-02
2.262161011632441e-02 -3.670043282405790e-17 -1.100610011701407e-17
1.263037367442423e-02 -1.236458984899594e-17 6.699942894691391e-03
1.263037367442427e-02 -6.699942894691379e-03 -2.052888104011745e-17
2.656388280388699e-02 -4.054472340721579e-02 4.054472340721568e-02
1.640222713167661e-02 -1.885620211405886e-17 1.128710662351273e-02
1.130030557453814e-02 -4.559614254024851e-03 4.559614254024836e-03
1.640222713167662e-02 -1.128710662351274e-02 -1.898610867982634e-17
2.251411779120404e-02 -1.911598551203672e-02 1.911598551203665e-02
1.916813356510503e-02 -1.264946415394909e-02 1.628928253631383e-02
1.916813356510512e-02 -1.628928253631389e-02 1.264946415394904e-02
2.262161011632441e-02 -3.670043282405790e-17 -1.100610011701407e-17
1.263037367442427e-02 -6.699942894691379e-03 -2.052888104011745e-17
1.263037367442428e-02 3.793992493608963e-18 -6.699942894691403e-03
2.656388280388699e-02 -4.054472340721581e-02 -4.054472340721574e-02
1.640222713167662e-02 -1.128710662351274e-02 -1.898610867982634e-17
1.130030557453813e-02 -4.559614254024835e-03 -4.559614254024849e-03
1.640222713167661e-02 1.788538118951844e-17 -1.128710662351275e-02
2.251411779120402e-02 -1.911598551203670e-02 -1.911598551203669e-02
1.916813356510511e-02 -1.628928253631387e-02 -1.264946415394908e-02
1.916813356510507e-02 -1.264946415394906e-02 -1.628928253631387e-02
0.000000000000000e+00 0.000000000000000e+00 0.000000000000000e+00
1.263037367442428e-02 3.793992493608963e-18 -6.699942894691403e-03
1.263037367442428e-02 6.699942894691413e-03 1.595113797837748e-17
1.086826521567104e-02 -1.419585369864711e-17 6.034841448311444e-19
5.381986458432514e-03 3.938548758521218e-18 -1.707144947572331e-03
1.130030557453813e-02 4.559614254024868e-03 -4.559614254024845e-03
5.381986458432520e-03 1.707144947572330e-03 1.044433112682939e-18
5.377454085806461e-03 1.193131879897810e-18 5.794369576241223e-19
1.082936022416986e-02 8.510964770552445e-18 -4.874827897605533e-03
1.082936022416986e-02 4.874827897605537e-03 3.052452396392049e-18
0.000000000000000e+00 0.000000000000000e+00 0.000000000000000e+00
1.263037367442428e-02 6.699942894691413e-03 1.595113797837748e-17
1.263037367442423e-02 -1.236458984899594e-17 6.699942894691391e-03
1.086826521567104e-02 -1.419585369864711e-17 6.034841448311444e-19
5.381986458432520e-03 1.707144947572330e-03 1.044433112682939e-18
1.130030557453815e-02 4.559614254024846e-03 4.559614254024851e-03
5.381986458432525e-03 -1.227843926827652e-18 1.707144947572327e-03
5.377454085806461e-03 1.193131879897810e-18 5.794369576241223e-19
1.082936022416986e-02 4.874827897605537e-03 3.052452396392049e-18
1.082936022416988e-02 -8.800196722807518e-18 4.874827897605525e-03
0.000000000000000e+00 0.000000000000000e+00 0.000000000000000e+00
1.263037367442423e-02 -1.236458984899594e-17 6.699942894691391e-03
1.263037367442427e-02 -6.699942894691379e-03 -2.052888104011745e-17
1.086826521567104e-02 -1.419585369864711e-17 6.034841448311444e-19
5.381986458432525e-03 -1.227843926827652e-18 1.707144947572327e-03
1.130030557453814e-02 -4.559614254024851e-03 4.559614254024836e-03
5.381986458432526e-03 -1.707144947572324e-03 -7.351871224085019e-18
5.377454085806461e-03 1.193131879897810e-18 5.794369576241223e-19
1.082936022416988e-02 -8.800196722807518e-18 4.874827897605525e-03
1.082936022416988e-02 -4.874827897605524e-03 -1.265279991556427e-17
0.000000000000000e+00 0.000000000000000e+00 0.000000000000000e+00
1.263037367442427e-02 -6.699942894691379e-03 -2.052888104011745e-17
1.263037367442428e-02 3.793992493608963e-18 -6.699942894691403e-03
1.086826521567104e-02 -1.419585369864711e-17 6.034841448311444e-19
5.381986458432526e-03 -1.707144947572324e-03 -7.351871224085019e-18
1.130030557453813e-02 -4.559614254024835e-03 -4.559614254024849e-03
5.381986458432514e-03 3.938548758521218e-18 -1.707144947572331e-03
5.377454085806461e-03 1.193131879897810e-18 5.794369576241223e-19
1.082936022416988e-02 -4.874827897605524e-03 -1.265279991556427e-17
1.082936022416986e-02 8.510964770552445e-18 -4.874827897605533e-03
2.262161011632441e-02 -3.670043282405790e-17 -1.100610011701407e-17
1.263037367442428e-02 6.699942894691413e-03 1.595113797837748e-17
1.263037367442428e-02 3.793992493608963e-18 -6.699942894691403e-03
1.086826521567104e-02 -1.419585369864711e-17 6.034841448311444e-19
1.640222713167661e-02 1.128710662351276e-02 1.020110753487106e-17
1.130030557453813e-02 4.559614254024868e-03 -4.559614254024845e-03
1.640222713167661e-02 1.788538118951844e-17 -1.128710662351275e-02
1.661690221175204e-02 6.908226913333119e-18 -3.615518660452715e-18
1.082936022416986e-02 4.874827897605537e-03 3.052452396392049e-18
1.082936022416986e-02 8.510964770552445e-18 -4.874827897605533e-03
2.262161011632441e-02 -3.670043282405790e-17 -1.100610011701407e-17
1.263037367442423e-02 -1.236458984899594e-17 6.699942894691391e-03
1.263037367442428e-02 6.699942894691413e-03 1.595113797837748e-17
1.086826521567104e-02 -1.419585369864711e-17 6.034841448311444e-19
1.640222713167661e-02 -1.885620211405886e-17 1.128710662351273e-02
1.130030557453815e-02 4.559614254024846e-03 4.559614254024851e-03
1.640222713167661e-02 1.128710662351276e-02 1.020110753487106e-17
1.661690221175204e-02 6.908226913333119e-18 -3.615518660452715e-18
1.082936022416988e-02 -8.800196722807518e-18 4.874827897605525e-03
1.082936022416986e-02 4.874827897605537e-03 3.052452396392049e-18
2.262161011632441e-02 -3.670043282405790e-17 -1.100610011701407e-17
1.263037367442427e-02 -6.699942894691379e-03 -2.052888104011745e-17
1.263037367442423e-02 -1.236458984899594e-17 6.699942894691391e-03
1.086826521567104e-02 -1.419585369864711e-17 6.034841448311444e-19
1.640222713167662e-02 -1.128710662351274e-02 -1.898610867982634e-17
1.130030557453814e-02 -4.559614254024851e-03 4.559614254024836e-03
1.640222713167661e-02 -1.885620211405886e-17 1.128710662351273e-02
1.661690221175204e-02 6.908226913333119e-18 -3.615518660452715e-18
1.082936022416988e-02 -4.874827897605524e-03 -1.265279991556427e-17
1.082936022416988e-02 -8.800196722807518e-18 4.874827897605525e-03
2.262161011632441e-02 -3.670043282405790e-17 -1.100610011701407e-17
1.263037367442428e-02 3.793992493608963e-18 -6.699942894691403e-03
1.263037367442427e-02 -6.699942894691379e-03 -2.052888104011745e-17
1.086826521567104e-02 -1.419585369864711e-17 6.034841448311444e-19
1.640222713167661e-02 1.788538118951844e-17 -1.128710662351275e-02
1.130030557453813e-02 -4.559614254024835e-03 -4.559614254024849e-03
1.640222713167662e-02 -1.128710662351274e-02 -1.898610867982634e-17
1.661690221175204e-02 6.908226913333119e-18 -3.615518660452715e-18
1.082936022416986e-02 8.510964770552445e-18 -4.874827897605533e-03
1.082936022416988e-02 -4.874827897605524e-03 -1.265279991556427e-17
2.656388280388691e-02 4.054472340721572e-02 -4.054472340721579e-02
2.656388280388704e-02 4.054472340721577e-02 4.054472340721575e-02
2.262161011632441e-02 -3.670043282405790e-17 -1.100610011701407e-17
8.749974750260131e-01 1.086403888110790e-01 -1.017687505297503e-18
2.425831298711764e-02 3.927425341100561e-02 3.436308387524650e-17
2.251411779120404e-02 1.911598551203669e-02 1.911598551203668e-02
2.251411779120402e-02 1.911598551203670e-02 -1.911598551203668e-02
4.470574266630172e-01 9.393420055389988e-02 -3.875234657931789e-02
4.470574266630168e-01 9.393420055389980e-02 3.875234657931793e-02
4.421882460427351e-01 4.194581509455362e-02 2.291625050551555e-17
2.656388280388704e-02 4.054472340721577e-02 4.054472340721575e-02
2.656388280388699e-02 -4.054472340721579e-02 4.054472340721568e-02
2.262161011632441e-02 -3.670043282405790e-17 -1.100610011701407e-17
8.749974750260127e-01 3.546246153828103e-17 1.086403888110788e-01
2.425831298711763e-02 -2.221408203366578e-17 3.927425341100554e-02
2.251411779120404e-02 -1.911598551203672e-02 1.911598551203665e-02
2.251411779120404e-02 1.911598551203669e-02 1.911598551203668e-02