<?xml version="1.0" ?> 
<!-- 
# vtk DataFile Version 3.0
-->
<VTKFile type="UnstructuredGrid" version="0.1" compressor="vtkZLibDataCompressor" byte_order="LittleEndian">
  <UnstructuredGrid>
    <FieldData>
      <DataArray type="Float64" Name="TIME" NumberOfTuples="1" format="ascii">
7.000000000000000e+00 
      </DataArray>
    </FieldData>

    <Piece NumberOfPoints="70" NumberOfCells="6" >
      <Points>
        <DataArray type="Float64" NumberOfComponents="3" format="ascii">
2.000000000000000e+00 0.000000000000000e+00 0.000000000000000e+00
3.000000000000000e+00 0.000000000000000e+00 0.000000000000000e+00
3.000000000000000e+00 1.000000000000000e+00 0.000000000000000e+00
3.000000000000000e+00 0.000000000000000e+00 1.000000000000000e+00
2.500000000000000e+00 0.000000000000000e+00 0.000000000000000e+00
3.000000000000000e+00 5.000000000000000e-01 0.000000000000000e+00
2.500000000000000e+00 5.000000000000000e-01 0.000000000000000e+00
2.500000000000000e+00 0.000000000000000e+00 5.000000000000000e-01
3.000000000000000e+00 0.000000000000000e+00 5.000000000000000e-01
3.000000000000000e+00 5.000000000000000e-01 5.000000000000000e-01
3.000000000000000e+00 1.000000000000000e+00 0.000000000000000e+00
2.000000000000000e+00 1.000000000000000e+00 0.000000000000000e+00
2.000000000000000e+00 0.000000000000000e+00 0.000000000000000e+00
2.000000000000000e+00 1.000000000000000e+00 1.000000000000000e+00
2.500000000000000e+00 1.000000000000000e+00 0.000000000000000e+00
2.000000000000000e+00 5.000000000000000e-01 0.000000000000000e+00
2.500000000000000e+00 5.000000000000000e-01 0.000000000000000e+00
2.500000000000000e+00 1.000000000000000e+00 5.000000000000000e-01
2.000000000000000e+00 1.000000000000000e+00 5.000000000000000e-01
2.000000000000000e+00 5.000000000000000e-01 5.000000000000000e-01
2.000000000000000e+00 0.000000000000000e+00 0.000000000000000e+00
3.000000000000000e+00 0.000000000000000e+00 1.000000000000000e+00
2.000000000000000e+00 1.000000000000000e+00 1.000000000000000e+00
2.000000000000000e+00 0.000000000000000e+00 1.000000000000000e+00
2.500000000000000e+00 0.000000000000000e+00 5.000000000000000e-01
2.500000000000000e+00 5.000000000000000e-01 1.000000000000000e+00
2.000000000000000e+00 5.000000000000000e-01 5.000000000000000e-01
2.000000000000000e+00 0.000000000000000e+00 5.000000000000000e-01
2.500000000000000e+00 0.000000000000000e+00 1.000000000000000e+00
2.000000000000000e+00 5.000000000000000e-01 1.000000000000000e+00
3.000000000000000e+00 1.000000000000000e+00 0.000000000000000e+00
2.000000000000000e+00 1.000000000000000e+00 1.000000000000000e+00
3.000000000000000e+00 0.000000000000000e+00 1.000000000000000e+00
3.000000000000000e+00 1.000000000000000e+00 1.000000000000000e+00
2.500000000000000e+00 1.000000000000000e+00 5.000000000000000e-01
2.500000000000000e+00 5.000000000000000e-01 1.000000000000000e+00
3.000000000000000e+00 5.000000000000000e-01 5.000000000000000e-01
3.000000000000000e+00 1.000000000000000e+00 5.000000000000000e-01
2.500000000000000e+00 1.000000000000000e+00 1.000000000000000e+00
3.000000000000000e+00 5.000000000000000e-01 1.000000000000000e+00
2.000000000000000e+00 0.000000000000000e+00 0.000000000000000e+00
3.000000000000000e+00 1.000000000000000e+00 0.000000000000000e+00
2.000000000000000e+00 1.000000000000000e+00 1.000000000000000e+00
3.000000000000000e+00 0.000000000000000e+00 1.000000000000000e+00
2.500000000000000e+00 5.000000000000000e-01 0.000000000000000e+00
2.500000000000000e+00 1.000000000000000e+00 5.000000000000000e-01
2.000000000000000e+00 5.000000000000000e-01 5.000000000000000e-01
2.500000000000000e+00 0.000000000000000e+00 5.000000000000000e-01
3.000000000000000e+00 5.000000000000000e-01 5.000000000000000e-01
2.500000000000000e+00 5.000000000000000e-01 1.000000000000000e+00
8.000000000000000e+00 0.000000000000000e+00 0.000000000000000e+00
9.000000000000000e+00 0.000000000000000e+00 0.000000000000000e+00
9.000000000000000e+00 1.000000000000000e+00 0.000000000000000e+00
8.000000000000000e+00 1.000000000000000e+00 0.000000000000000e+00
8.000000000000000e+00 0.000000000000000e+00 1.000000000000000e+00
9.000000000000000e+00 0.000000000000000e+00 1.000000000000000e+00
9.000000000000000e+00 1.000000000000000e+00 1.000000000000000e+00
8.000000000000000e+00 1.000000000000000e+00 1.000000000000000e+00
8.500000000000000e+00 0.000000000000000e+00 0.000000000000000e+00
9.000000000000000e+00 5.000000000000000e-01 0.000000000000000e+00
8.500000000000000e+00 1.000000000000000e+00 0.000000000000000e+00
8.000000000000000e+00 5.000000000000000e-01 0.000000000000000e+00
8.500000000000000e+00 0.000000000000000e+00 1.000000000000000e+00
9.000000000000000e+00 5.000000000000000e-01 1.000000000000000e+00
8.500000000000000e+00 1.000000000000000e+00 1.000000000000000e+00
8.000000000000000e+00 5.000000000000000e-01 1.000000000000000e+00
8.000000000000000e+00 0.000000000000000e+00 5.000000000000000e-01
9.000000000000000e+00 0.000000000000000e+00 5.000000000000000e-01
9.000000000000000e+00 1.000000000000000e+00 5.000000000000000e-01
8.000000000000000e+00 1.000000000000000e+00 5.000000000000000e-01
        </DataArray>
      </Points>

      <Cells>
        <DataArray type="Int32" Name="connectivity" format="ascii">
0 1 2 3 4 5 6 7 8 9 10 11 12 13 14 15 16 17 18 19 20 21 22 23 24 25 26 27 28 29 30 31 32 33 34 35 36 37 38 39 40 41 42 43 44 45 46 47 48 49 50 51 52 53 54 55 56 57 58 59 60 61 62 63 64 65 66 67 68 69 
        </DataArray>
        <DataArray type="Int32" Name="offsets" format="ascii">
10 20 30 40 50 70 
        </DataArray>
        <DataArray type="UInt8" Name="types" format="ascii">
24 24 24 24 24 25 
        </DataArray>
      </Cells>

  <PointData>
        <DataArray type="Float64" Name="displacement" NumberOfComponents="3" format="ascii">
0.000000000000000e+00 0.000000000000000e+00 0.000000000000000e+00
0.000000000000000e+00 0.000000000000000e+00 0.000000000000000e+00
0.000000000000000e+00 0.000000000000000e+00 0.000000000000000e+00
-1.119984332524263e-03 -1.174584822315992e-03 -1.986160783320702e-04
0.000000000000000e+00 0.000000000000000e+00 0.000000000000000e+00
0.000000000000000e+00 0.000000000000000e+00 0.000000000000000e+00
0.000000000000000e+00 0.000000000000000e+00 0.000000000000000e+00
-3.854928836934672e-04 -4.964858129985044e-04 -4.461449260160489e-04
-3.637375893680105e-04 -4.146703048972618e-04 -9.556668411351647e-05
-4.512299750659215e-04 -3.854284786294233e-04 2.621484958709081e-04
0.000000000000000e+00 0.000000000000000e+00 0.000000000000000e+00
0.000000000000000e+00 0.000000000000000e+00 0.000000000000000e+00
0.000000000000000e+00 0.000000000000000e+00 0.000000000000000e+00
-1.174584822316006e-03 -1.119984332524293e-03 -1.986160783320289e-04
0.000000000000000e+00 0.000000000000000e+00 0.000000000000000e+00
0.000000000000000e+00 0.000000000000000e+00 0.000000000000000e+00
0.000000000000000e+00 0.000000000000000e+00 0.000000000000000e+00
-3.854284786294615e-04 -4.512299750659289e-04 2.621484958709136e-04
-4.146703048972428e-04 -3.637375893680103e-04 -9.556668411352937e-05
-4.964858129985060e-04 -3.854928836934523e-04 -4.461449260160899e-04
0.000000000000000e+00 0.000000000000000e+00 0.000000000000000e+00
-1.119984332524263e-03 -1.174584822315992e-03 -1.986160783320702e-04
-1.174584822316006e-03 -1.119984332524293e-03 -1.986160783320289e-04
-1.227487677017719e-03 -1.227487677017600e-03 -1.340223888204074e-03
-3.854928836934672e-04 -4.964858129985044e-04 -4.461449260160489e-04
-1.207214769493653e-03 -1.207214769493613e-03 -1.921301565047877e-04
-4.964858129985060e-04 -3.854928836934523e-04 -4.461449260160899e-04
-5.363418911192205e-04 -5.363418911192009e-04 -8.867792629641953e-04
-1.156298640927218e-03 -1.215729601851248e-03 -7.447790430980180e-04
-1.215729601851315e-03 -1.156298640927213e-03 -7.447790430981158e-04
0.000000000000000e+00 0.000000000000000e+00 0.000000000000000e+00
-1.174584822316006e-03 -1.119984332524293e-03 -1.986160783320289e-04
-1.119984332524263e-03 -1.174584822315992e-03 -1.986160783320702e-04
-1.170052883690684e-03 -1.170052883690748e-03 9.582030641726414e-04
-3.854284786294615e-04 -4.512299750659289e-04 2.621484958709136e-04
-1.207214769493653e-03 -1.207214769493613e-03 -1.921301565047877e-04
-4.512299750659215e-04 -3.854284786294233e-04 2.621484958709081e-04
-4.892579617375386e-04 -4.892579617375955e-04 6.910209133140923e-04
-1.154195186294660e-03 -1.159936269401589e-03 3.645838069205682e-04
-1.159936269401612e-03 -1.154195186294672e-03 3.645838069205354e-04
0.000000000000000e+00 0.000000000000000e+00 0.000000000000000e+00
0.000000000000000e+00 0.000000000000000e+00 0.000000000000000e+00
-1.174584822316006e-03 -1.119984332524293e-03 -1.986160783320289e-04
-1.119984332524263e-03 -1.174584822315992e-03 -1.986160783320702e-04
0.000000000000000e+00 0.000000000000000e+00 0.000000000000000e+00
-3.854284786294615e-04 -4.512299750659289e-04 2.621484958709136e-04
-4.964858129985060e-04 -3.854928836934523e-04 -4.461449260160899e-04
-3.854928836934672e-04 -4.964858129985044e-04 -4.461449260160489e-04
-4.512299750659215e-04 -3.854284786294233e-04 2.621484958709081e-04
-1.207214769493653e-03 -1.207214769493613e-03 -1.921301565047877e-04
0.000000000000000e+00 0.000000000000000e+00 0.000000000000000e+00
0.000000000000000e+00 0.000000000000000e+00 0.000000000000000e+00
0.000000000000000e+00 0.000000000000000e+00 0.000000000000000e+00
0.000000000000000e+00 0.000000000000000e+00 0.000000000000000e+00
-1.225539192758702e-03 -1.225539192758680e-03 -1.261508824877267e-03
-1.189589880280387e-03 -1.236492005105923e-03 -1.939843569971544e-04
-1.175306775449046e-03 -1.175306775448902e-03 8.737011330674156e-04
-1.236492005105978e-03 -1.189589880280342e-03 -1.939843569971944e-04
0.000000000000000e+00 0.000000000000000e+00 0.000000000000000e+00
0.000000000000000e+00 0.000000000000000e+00 0.000000000000000e+00
0.000000000000000e+00 0.000000000000000e+00 0.000000000000000e+00
0.000000000000000e+00 0.000000000000000e+00 0.000000000000000e+00
-1.169338310963733e-03 -1.266532253187949e-03 -7.601577479083051e-04
-1.217885742745166e-03 -1.167132355362114e-03 3.761267992743116e-04
-1.167132355362136e-03 -1.217885742745074e-03 3.761267992742266e-04
-1.266532253188002e-03 -1.169338310963669e-03 -7.601577479083533e-04
-5.642610530350717e-04 -5.642610530350918e-04 -8.505684354553593e-04
-3.654751856966677e-04 -4.146642503301470e-04 -9.446308570035348e-05
-5.127742174140787e-04 -5.127742174140476e-04 6.627239721625182e-04
-4.146642503301902e-04 -3.654751856966407e-04 -9.446308570037890e-05
        </DataArray>
        <DataArray type="Float64" Name="nodal_GL_strains_xyz" NumberOfComponents="6" format="ascii">
-1.729622992953762e-04 -1.729622992952949e-04 1.743731737231304e-03 2.215282671325032e-05 2.668401898315456e-04 2.668401898315662e-04
-8.439629033237856e-08 -8.865302944304425e-08 1.820639611924159e-04 -8.173768162528501e-08 2.418874451714759e-04 1.675138430606951e-04
1.449795985571613e-04 1.449795985572769e-04 -1.390326727707824e-03 -1.422028533729950e-05 2.273322812014188e-04 2.273322812014225e-04
-7.895419654095375e-05 -6.010225864912808e-05 2.149456115003314e-04 -5.075472411217927e-07 2.813070890602117e-04 2.925100097670822e-04
-8.439629045650447e-08 -8.865302919477890e-08 8.848213557244150e-04 -8.173768162528543e-08 3.234145547955292e-04 1.886789575910452e-04
-8.439629070475796e-08 -8.865302919478229e-08 -5.343998488958364e-04 -8.173768162537607e-08 2.132230352037754e-04 2.556486256252249e-04
-6.113356856241082e-06 -6.113356856038575e-06 1.682905445382445e-04 5.864124688495048e-06 2.857857481874590e-04 2.857857481874491e-04
-1.374592812909544e-04 -1.428738923776862e-04 9.485025100407238e-04 2.685478095372238e-05 2.630303776554904e-04 2.559710927399548e-04
-4.218135974094963e-05 -5.717244201899811e-05 2.012930608151148e-04 6.751852654539926e-06 2.296290844561151e-04 2.094130669626310e-04
5.000063530778169e-05 4.398733418284029e-05 -5.518904541846219e-04 -2.219445187286741e-05 2.332131185950630e-04 2.479279621666781e-04
1.449795985571613e-04 1.449795985572769e-04 -1.390326727707824e-03 -1.422028533729950e-05 2.273322812014188e-04 2.273322812014225e-04
-8.865302930581136e-08 -8.439629061494367e-08 1.820639611923473e-04 -8.173768162497627e-08 1.675138430608196e-04 2.418874451714465e-04
-1.729622992953762e-04 -1.729622992952949e-04 1.743731737231304e-03 2.215282671325032e-05 2.668401898315456e-04 2.668401898315662e-04
-6.010225864924364e-05 -7.895419654106073e-05 2.149456115005625e-04 -5.075472411487106e-07 2.925100097669628e-04 2.813070890601274e-04
-8.865302918167699e-08 -8.439629049081269e-08 -5.343998488959051e-04 -8.173768162512026e-08 2.556486256253206e-04 2.132230352037208e-04
-8.865302942993218e-08 -8.439629061494028e-08 8.848213557243462e-04 -8.173768162506351e-08 1.886789575911173e-04 3.234145547954587e-04
-6.113356856241082e-06 -6.113356856038575e-06 1.682905445382445e-04 5.864124688495048e-06 2.857857481874590e-04 2.857857481874491e-04
4.398733418288169e-05 5.000063530777462e-05 -5.518904541844793e-04 -2.219445187289391e-05 2.479279621666152e-04 2.332131185950511e-04
-5.717244201886088e-05 -4.218135974123219e-05 2.012930608152943e-04 6.751852654552070e-06 2.094130669626927e-04 2.296290844561453e-04
-1.428738923778473e-04 -1.374592812910899e-04 9.485025100407836e-04 2.685478095375830e-05 2.559710927399024e-04 2.630303776555112e-04
-1.729622992953762e-04 -1.729622992952949e-04 1.743731737231304e-03 2.215282671325032e-05 2.668401898315456e-04 2.668401898315662e-04
-7.895419654095375e-05 -6.010225864912808e-05 2.149456115003314e-04 -5.075472411217927e-07 2.813070890602117e-04 2.925100097670822e-04
-6.010225864924364e-05 -7.895419654106073e-05 2.149456115005625e-04 -5.075472411487106e-07 2.925100097669628e-04 2.813070890601274e-04
-1.752231435206805e-04 -1.752231435204666e-04 4.801835346274656e-04 8.040835456840586e-06 1.472424735238923e-04 1.472424735236423e-04
-1.374592812909544e-04 -1.428738923776862e-04 9.485025100407238e-04 2.685478095372238e-05 2.630303776554904e-04 2.559710927399548e-04
-5.961521109346778e-05 -5.961521109339211e-05 2.130867618545867e-04 -5.205210651752713e-06 3.044308967838963e-04 3.044308967839046e-04
-1.428738923778473e-04 -1.374592812910899e-04 9.485025100407836e-04 2.685478095375830e-05 2.559710927399024e-04 2.630303776555112e-04
-3.357873593802368e-04 -3.357873593803953e-04 1.346279042826581e-03 -4.904889156437097e-05 1.462741244455285e-04 1.462741244454291e-04
-1.055183471367414e-04 -4.977669634727329e-05 1.704327269446921e-04 4.118897703099259e-05 2.193689174051071e-04 2.772426195807985e-04
-4.977669634761140e-05 -1.055183471366516e-04 1.704327269446921e-04 4.118897703101834e-05 2.772426195808264e-04 2.193689174048900e-04
1.449795985571613e-04 1.449795985572769e-04 -1.390326727707824e-03 -1.422028533729950e-05 2.273322812014188e-04 2.273322812014225e-04
-6.010225864924364e-05 -7.895419654106073e-05 2.149456115005625e-04 -5.075472411487106e-07 2.925100097669628e-04 2.813070890601274e-04
-7.895419654095375e-05 -6.010225864912808e-05 2.149456115003314e-04 -5.075472411217927e-07 2.813070890602117e-04 2.925100097670822e-04
7.050779973617047e-05 7.050779973577688e-05 -1.051473927240705e-04 -7.504226078879897e-06 1.687579075661549e-04 1.687579075660616e-04
4.398733418288169e-05 5.000063530777462e-05 -5.518904541844793e-04 -2.219445187289391e-05 2.479279621666152e-04 2.332131185950511e-04
-5.961521109346778e-05 -5.961521109339211e-05 2.130867618545867e-04 -5.205210651752713e-06 3.044308967838963e-04 3.044308967839046e-04
5.000063530778169e-05 4.398733418284029e-05 -5.518904541846219e-04 -2.219445187286741e-05 2.332131185950630e-04 2.479279621666781e-04
2.458043565802754e-04 2.458043565801300e-04 -9.568225864426563e-04 4.758990493976780e-05 1.427137636030464e-04 1.427137636030530e-04
-2.211340742322178e-06 -5.615692141707980e-05 2.254840958511401e-04 -4.098502811569897e-05 2.326952425505957e-04 2.866603425391870e-04
-5.615692141693448e-05 -2.211340742591643e-06 2.254840958508918e-04 -4.098502811553746e-05 2.866603425394134e-04 2.326952425507277e-04
-1.729622992953762e-04 -1.729622992952949e-04 1.743731737231304e-03 2.215282671325032e-05 2.668401898315456e-04 2.668401898315662e-04
1.449795985571613e-04 1.449795985572769e-04 -1.390326727707824e-03 -1.422028533729950e-05 2.273322812014188e-04 2.273322812014225e-04
-6.010225864924364e-05 -7.895419654106073e-05 2.149456115005625e-04 -5.075472411487106e-07 2.925100097669628e-04 2.813070890601274e-04
-7.895419654095375e-05 -6.010225864912808e-05 2.149456115003314e-04 -5.075472411217927e-07 2.813070890602117e-04 2.925100097670822e-04
-6.113356856241082e-06 -6.113356856038575e-06 1.682905445382445e-04 5.864124688495048e-06 2.857857481874590e-04 2.857857481874491e-04
4.398733418288169e-05 5.000063530777462e-05 -5.518904541844793e-04 -2.219445187289391e-05 2.479279621666152e-04 2.332131185950511e-04
-1.428738923778473e-04 -1.374592812910899e-04 9.485025100407836e-04 2.685478095375830e-05 2.559710927399024e-04 2.630303776555112e-04
-1.374592812909544e-04 -1.428738923776862e-04 9.485025100407238e-04 2.685478095372238e-05 2.630303776554904e-04 2.559710927399548e-04
5.000063530778169e-05 4.398733418284029e-05 -5.518904541846219e-04 -2.219445187286741e-05 2.332131185950630e-04 2.479279621666781e-04
-5.961521109346778e-05 -5.961521109339211e-05 2.130867618545867e-04 -5.205210651752713e-06 3.044308967838963e-04 3.044308967839046e-04
-6.524876269417345e-08 -6.524876326813145e-08 2.146468134063748e-03 -6.335345620117444e-08 5.151569135210844e-04 5.151569135210698e-04
-7.449966393075118e-08 -7.084364872126398e-08 1.818959574373718e-04 -5.537129774100887e-08 2.107794738433033e-04 1.361003638775901e-04
-5.701109049011512e-08 -5.701109239497194e-08 -1.778530292695278e-03 -5.816765528253526e-08 4.394401581392297e-04 4.394401581392882e-04
-7.084364795872087e-08 -7.449966494613192e-08 1.818959574370929e-04 -5.537129774008899e-08 1.361003638775496e-04 2.107794738431452e-04
-1.880891062750598e-04 -1.880891062760249e-04 3.887502089625694e-04 1.544882638389531e-04 2.406938310260521e-04 2.406938310261039e-04
1.201639446181282e-04 -2.137436535803373e-04 2.134887219408178e-04 4.973459706713213e-07 4.194277827622076e-04 4.553852475027422e-04
9.532782877566100e-05 9.532782877669550e-05 3.508499644905005e-05 -1.552305545068778e-04 2.765915952468861e-04 2.765915952469001e-04
-2.137436535795926e-04 1.201639446172542e-04 2.134887219410331e-04 4.973459706887002e-07 4.553852475028041e-04 4.194277827620511e-04
-6.987421431078382e-08 -6.227899280061326e-08 1.196084264793747e-03 -6.071049125297460e-08 3.807377842994377e-04 3.063803516012723e-04
-5.999013622848043e-08 -6.392737038966767e-08 -8.352238605805659e-04 -5.811906783717660e-08 3.057711335091753e-04 3.055625959340489e-04
-6.392737011643517e-08 -5.999013575726922e-08 -8.352238605802492e-04 -5.811906783816511e-08 3.055625959339876e-04 3.057711335091874e-04
-6.227899390506969e-08 -6.987421358680782e-08 1.196084264793983e-03 -6.071049125320925e-08 3.063803516012868e-04 3.807377842992988e-04
-3.399294648961616e-05 -2.007126635621524e-04 3.334722962227623e-04 7.743166217045887e-05 3.133299364786946e-04 3.287635282171830e-04
1.079486250357473e-04 -5.924061854180456e-05 8.780501797241405e-05 -7.742872811313674e-05 3.286989760307165e-04 3.494205288075877e-04
-5.924061854267187e-05 1.079486250353706e-04 8.780501797246484e-05 -7.742872811304057e-05 3.494205288075769e-04 3.286989760307067e-04
-2.007126635631491e-04 -3.399294648812169e-05 3.334722962234492e-04 7.743166217037720e-05 3.287635282172178e-04 3.133299364786185e-04
-2.749322765750810e-04 -2.749322765736782e-04 1.267185327794398e-03 -7.790453378389141e-05 2.658839028213969e-04 2.658839028214371e-04
-1.208550509291452e-04 2.234928412174386e-05 1.969366796586481e-04 6.557544265142824e-08 2.036212816457861e-04 1.840305302728449e-04
1.769407613851337e-04 1.769407613851989e-04 -8.722234312251824e-04 7.740001939426386e-05 2.468438598004842e-04 2.468438598005376e-04
2.234928412040963e-05 -1.208550509291965e-04 1.969366796589349e-04 6.557544264255813e-08 1.840305302728379e-04 2.036212816456578e-04
        </DataArray>
        <DataArray type="Float64" Name="nodal_cauchy_stresses_xyz" NumberOfComponents="6" format="ascii">
1.049076375662264e+00 1.049076375662457e+00 4.878473968489936e+00 4.469131918772449e-02 5.355380157760095e-01 5.355380157760503e-01
1.821401149383612e-01 1.823275627925122e-01 5.465736645509065e-01 -3.231611468305310e-05 4.837524551824415e-01 3.349988317657853e-01
-8.112581770487697e-01 -8.112581770485876e-01 -3.883450283885951e+00 -2.817822461541741e-02 4.529640835031081e-01 4.529640835031158e-01
-8.012508469600563e-02 -4.244752000882326e-02 5.029165957135908e-01 7.176976848559330e-04 5.632180782378627e-01 5.859425140143298e-01
8.831674591209531e-01 8.835605171118938e-01 2.651380850710519e+00 1.008832659857781e-04 6.470896957142953e-01 3.776105507927239e-01
-5.347076784869388e-01 -5.348478648114116e-01 -1.604027512963843e+00 5.036758583900399e-05 4.261286298626420e-01 5.109944321545800e-01
1.423699042602551e-01 1.423699042606393e-01 4.887487142492178e-01 1.205539616941416e-02 5.715370635185790e-01 5.715370635185590e-01
3.928159414847302e-01 3.819423513974237e-01 2.560424783185962e+00 5.473020804704710e-02 5.273841415572766e-01 5.133945182815388e-01
1.879744547559410e-02 -1.114301295427512e-02 5.036307346425282e-01 1.436318697481494e-02 4.596170922196213e-01 4.193071330294621e-01
-3.574888636885806e-01 -3.694758545578534e-01 -1.564407806552991e+00 -4.342343583422335e-02 4.658908808036989e-01 4.954465775814053e-01
-8.112581770487697e-01 -8.112581770485876e-01 -3.883450283885951e+00 -2.817822461541741e-02 4.529640835031081e-01 4.529640835031158e-01
1.823275627925738e-01 1.821401149375989e-01 5.465736645505465e-01 -3.231611468228982e-05 3.349988317660341e-01 4.837524551823822e-01
1.049076375662264e+00 1.049076375662457e+00 4.878473968489936e+00 4.469131918772449e-02 5.355380157760095e-01 5.355380157760503e-01
-4.244752000906925e-02 -8.012508469631749e-02 5.029165957140735e-01 7.176976848017090e-04 5.859425140140918e-01 5.632180782376950e-01
-5.348478648112229e-01 -5.347076784864297e-01 -1.604027512963821e+00 5.036758583951660e-05 5.109944321547710e-01 4.261286298625326e-01
8.835605171109385e-01 8.831674591201905e-01 2.651380850709904e+00 1.008832659861979e-04 3.776105507928681e-01 6.470896957141543e-01
1.423699042602551e-01 1.423699042606393e-01 4.887487142492178e-01 1.205539616941416e-02 5.715370635185790e-01 5.715370635185590e-01
-3.694758545575876e-01 -3.574888636884448e-01 -1.564407806552517e+00 -4.342343583427653e-02 4.954465775812795e-01 4.658908808036755e-01
-1.114301295395917e-02 1.879744547508568e-02 5.036307346429310e-01 1.436318697483944e-02 4.193071330295861e-01 4.596170922196817e-01
3.819423513968277e-01 3.928159414841605e-01 2.560424783185842e+00 5.473020804711892e-02 5.133945182814348e-01 5.273841415573184e-01
1.049076375662264e+00 1.049076375662457e+00 4.878473968489936e+00 4.469131918772449e-02 5.355380157760095e-01 5.355380157760503e-01
-8.012508469600563e-02 -4.244752000882326e-02 5.029165957135908e-01 7.176976848559330e-04 5.632180782378627e-01 5.859425140143298e-01
-4.244752000906925e-02 -8.012508469631749e-02 5.029165957140735e-01 7.176976848017090e-04 5.859425140140918e-01 5.632180782376950e-01
-2.198558592591655e-01 -2.198558592586561e-01 1.088608857600182e+00 1.689531407246383e-02 2.964243121161507e-01 2.964243121156519e-01
3.928159414847302e-01 3.819423513974237e-01 2.560424783185962e+00 5.473020804704710e-02 5.273841415572766e-01 5.133945182815388e-01
-2.352193435543910e-02 -2.352193435534551e-02 5.169928593735320e-01 -8.629299775007258e-03 6.095908675763132e-01 6.095908675763299e-01
3.819423513968277e-01 3.928159414841605e-01 2.560424783185842e+00 5.473020804711892e-02 5.133945182814348e-01 5.273841415573184e-01
1.612826141479909e-03 1.612826141226750e-03 3.361945939491045e+00 -9.747077154913313e-02 2.960656221107049e-01 2.960656221105056e-01
-1.942162158458817e-01 -8.313402411536049e-02 3.537748173534381e-01 8.373038503459837e-02 4.394088208571661e-01 5.554332160771596e-01
-8.313402411637807e-02 -1.942162158461359e-01 3.537748173531841e-01 8.373038503464955e-02 5.554332160772152e-01 4.394088208567335e-01
-8.112581770487697e-01 -8.112581770485876e-01 -3.883450283885951e+00 -2.817822461541741e-02 4.529640835031081e-01 4.529640835031158e-01
-4.244752000906925e-02 -8.012508469631749e-02 5.029165957140735e-01 7.176976848017090e-04 5.859425140140918e-01 5.632180782376950e-01
-8.012508469600563e-02 -4.244752000882326e-02 5.029165957135908e-01 7.176976848559330e-04 5.632180782378627e-01 5.859425140143298e-01
1.780248178938653e-01 1.780248178930600e-01 -1.757612168140852e-01 -1.409187208418387e-02 3.368366248566486e-01 3.368366248564606e-01
-3.694758545575876e-01 -3.574888636884448e-01 -1.564407806552517e+00 -4.342343583427653e-02 4.954465775812795e-01 4.658908808036755e-01
-2.352193435543910e-02 -2.352193435534551e-02 5.169928593735320e-01 -8.629299775007258e-03 6.095908675763132e-01 6.095908675763299e-01
-3.574888636885806e-01 -3.694758545578534e-01 -1.564407806552991e+00 -4.342343583422335e-02 4.658908808036989e-01 4.954465775814053e-01
2.599833762209385e-02 2.599833762179636e-02 -2.381720892637680e+00 9.573249317964476e-02 2.829578543781925e-01 2.829578543782054e-01
1.643456644110669e-01 5.607043071069019e-02 6.155321520083845e-01 -8.053556776172359e-02 4.659823490411480e-01 5.736669408739341e-01
5.607043071060748e-02 1.643456644101356e-01 6.155321520074934e-01 -8.053556776139977e-02 5.736669408743871e-01 4.659823490414107e-01
1.049076375662264e+00 1.049076375662457e+00 4.878473968489936e+00 4.469131918772449e-02 5.355380157760095e-01 5.355380157760503e-01
-8.112581770487697e-01 -8.112581770485876e-01 -3.883450283885951e+00 -2.817822461541741e-02 4.529640835031081e-01 4.529640835031158e-01
-4.244752000906925e-02 -8.012508469631749e-02 5.029165957140735e-01 7.176976848017090e-04 5.859425140140918e-01 5.632180782376950e-01
-8.012508469600563e-02 -4.244752000882326e-02 5.029165957135908e-01 7.176976848559330e-04 5.632180782378627e-01 5.859425140143298e-01
1.423699042602551e-01 1.423699042606393e-01 4.887487142492178e-01 1.205539616941416e-02 5.715370635185790e-01 5.715370635185590e-01
-3.694758545575876e-01 -3.574888636884448e-01 -1.564407806552517e+00 -4.342343583427653e-02 4.954465775812795e-01 4.658908808036755e-01
3.819423513968277e-01 3.928159414841605e-01 2.560424783185842e+00 5.473020804711892e-02 5.133945182814348e-01 5.273841415573184e-01
3.928159414847302e-01 3.819423513974237e-01 2.560424783185962e+00 5.473020804704710e-02 5.273841415572766e-01 5.133945182815388e-01
-3.574888636885806e-01 -3.694758545578534e-01 -1.564407806552991e+00 -4.342343583422335e-02 4.658908808036989e-01 4.954465775814053e-01
-2.352193435543910e-02 -2.352193435534551e-02 5.169928593735320e-01 -8.629299775007258e-03 6.095908675763132e-01 6.095908675763299e-01
2.135621067178847e+00 2.135621067177824e+00 6.415949366308055e+00 1.193430778549948e-03 1.030436724952565e+00 1.030436724952536e+00
1.817206987770416e-01 1.818149342204500e-01 5.449869173589956e-01 9.959029761347554e-05 4.216357435790632e-01 2.720870699120084e-01
-1.786173685349307e+00 -1.786173685353190e+00 -5.352161495353302e+00 8.986704699267448e-04 8.787794070527604e-01 8.787794070528754e-01
1.818149342216376e-01 1.817206987747580e-01 5.449869173582007e-01 9.959029761540017e-05 2.720870699119291e-01 4.216357435787449e-01
-3.635279318244765e-01 -3.635279318263040e-01 7.867573899699369e-01 3.099854059493629e-01 4.822445639846414e-01 4.822445639847430e-01
3.623578578126670e-01 -3.056621328720136e-01 5.405012039282695e-01 3.651851409061816e-03 8.399394436529434e-01 9.111980506012139e-01
4.168480355592776e-01 4.168480355614166e-01 2.924610216556084e-01 -3.091953192136753e-01 5.534032949616968e-01 5.534032949617285e-01
-3.056621328700410e-01 3.623578578114962e-01 5.405012039293070e-01 3.651851409097309e-03 9.111980506013415e-01 8.399394436526295e-01
1.192588955959840e+00 1.192715321841643e+00 3.580317890352248e+00 4.970021847398641e-04 7.615171919361869e-01 6.127427812599588e-01
-8.370307441738709e-01 -8.369617463481616e-01 -2.510186310921534e+00 4.002380747147839e-04 6.115461158241865e-01 6.110708621704084e-01
-8.369617463468607e-01 -8.370307441721935e-01 -2.510186310920146e+00 4.002380747128385e-04 6.110708621702856e-01 6.115461158242113e-01
1.192715321839391e+00 1.192588955961108e+00 3.580317890352516e+00 4.970021847391174e-04 6.127427812599869e-01 7.615171919359118e-01
3.186443470539426e-02 -3.015918445592329e-01 7.613931562906595e-01 1.565592270364040e-01 6.278494242516549e-01 6.583266393854086e-01
3.538109791623156e-01 1.927669492821526e-02 3.077807158251540e-01 -1.530161568148277e-01 6.578945510963869e-01 6.990059462910319e-01
1.927669492508814e-02 3.538109791601646e-01 3.077807158239056e-01 -1.530161568146351e-01 6.990059462910122e-01 6.578945510963705e-01
-3.015918445599307e-01 3.186443470957277e-02 7.613931562931865e-01 1.565592270362404e-01 6.583266393854755e-01 6.278494242515060e-01
1.660145400966403e-01 1.660145400992870e-01 3.244927805163830e+00 -1.546700169217487e-01 5.344987811029999e-01 5.344987811030832e-01
-1.426835103584635e-01 1.437960834302627e-01 4.905733332108106e-01 9.823235081436751e-04 4.074593520901740e-01 3.687737073171492e-01
-1.648888159550287e-01 -1.648888159549241e-01 -2.267123725736749e+00 1.558038576214062e-01 4.918335855833730e-01 4.918335855834808e-01
1.437960834264332e-01 -1.426835103599184e-01 4.905733332100776e-01 9.823235081255993e-04 3.687737073171365e-01 4.074593520899215e-01
        </DataArray>
  </PointData>
  <CellData>
        <DataArray type="Float64" Name="element_GL_strains_xyz" NumberOfComponents="6" format="ascii">
-2.113287801588926e-05 -2.863054752397232e-05 1.848253032256386e-04 3.335057486457275e-06 2.621896146419719e-04 2.431134035591029e-04
-2.863054752408334e-05 -2.113287801586150e-05 1.848253032256941e-04 3.335057486463431e-06 2.431134035591555e-04 2.621896146419391e-04