<?xml version="1.0" ?> 
<!-- 
# vtk DataFile Version 3.0
-->
<VTKFile type="UnstructuredGrid" version="0.1" compressor="vtkZLibDataCompressor" byte_order="LittleEndian">
  <UnstructuredGrid>
    <FieldData>
      <DataArray type="Float64" Name="TIME" NumberOfTuples="1" format="ascii">
7.000000000000000e+00 
      </DataArray>
    </FieldData>

    <Piece NumberOfPoints="63" NumberOfCells="8" >
      <Points>
        <DataArray type="Float64" NumberOfComponents="3" format="ascii">
0.000000000000000e+00 0.000000000000000e+00 0.000000000000000e+00
1.000000000000000e+00 0.000000000000000e+00 0.000000000000000e+00
1.000000000000000e+00 1.000000000000000e+00 0.000000000000000e+00
1.000000000000000e+00 0.000000000000000e+00 1.000000000000000e+00
1.000000000000000e+00 1.000000000000000e+00 0.000000000000000e+00
0.000000000000000e+00 1.000000000000000e+00 0.000000000000000e+00
0.000000000000000e+00 0.000000000000000e+00 0.000000000000000e+00
0.000000000000000e+00 1.000000000000000e+00 1.000000000000000e+00
0.000000000000000e+00 0.000000000000000e+00 0.000000000000000e+00
1.000000000000000e+00 0.000000000000000e+00 1.000000000000000e+00
0.000000000000000e+00 1.000000000000000e+00 1.000000000000000e+00
0.000000000000000e+00 0.000000000000000e+00 1.000000000000000e+00
1.000000000000000e+00 1.000000000000000e+00 0.000000000000000e+00
0.000000000000000e+00 1.000000000000000e+00 1.000000000000000e+00
1.000000000000000e+00 0.000000000000000e+00 1.000000000000000e+00
1.000000000000000e+00 1.000000000000000e+00 1.000000000000000e+00
0.000000000000000e+00 0.000000000000000e+00 0.000000000000000e+00
1.000000000000000e+00 1.000000000000000e+00 0.000000000000000e+00
0.000000000000000e+00 1.000000000000000e+00 1.000000000000000e+00
1.000000000000000e+00 0.000000000000000e+00 1.000000000000000e+00
4.000000000000000e+00 0.000000000000000e+00 0.000000000000000e+00
5.000000000000000e+00 0.000000000000000e+00 0.000000000000000e+00
5.000000000000000e+00 1.000000000000000e+00 0.000000000000000e+00
4.000000000000000e+00 1.000000000000000e+00 0.000000000000000e+00
4.000000000000000e+00 0.000000000000000e+00 1.000000000000000e+00
5.000000000000000e+00 0.000000000000000e+00 1.000000000000000e+00
5.000000000000000e+00 1.000000000000000e+00 1.000000000000000e+00
4.000000000000000e+00 1.000000000000000e+00 1.000000000000000e+00
6.000000000000000e+00 0.000000000000000e+00 0.000000000000000e+00
7.000000000000000e+00 0.000000000000000e+00 0.000000000000000e+00
7.000000000000000e+00 1.000000000000000e+00 0.000000000000000e+00
6.000000000000000e+00 1.000000000000000e+00 0.000000000000000e+00
6.000000000000000e+00 0.000000000000000e+00 1.000000000000000e+00
7.000000000000000e+00 0.000000000000000e+00 1.000000000000000e+00
7.000000000000000e+00 1.000000000000000e+00 1.000000000000000e+00
6.000000000000000e+00 1.000000000000000e+00 1.000000000000000e+00
1.000000000000000e+01 0.000000000000000e+00 0.000000000000000e+00
1.100000000000000e+01 0.000000000000000e+00 0.000000000000000e+00
1.100000000000000e+01 1.000000000000000e+00 0.000000000000000e+00
1.000000000000000e+01 1.000000000000000e+00 0.000000000000000e+00
1.000000000000000e+01 0.000000000000000e+00 1.000000000000000e+00
1.100000000000000e+01 0.000000000000000e+00 1.000000000000000e+00
1.100000000000000e+01 1.000000000000000e+00 1.000000000000000e+00
1.000000000000000e+01 1.000000000000000e+00 1.000000000000000e+00
1.050000000000000e+01 0.000000000000000e+00 0.000000000000000e+00
1.100000000000000e+01 5.000000000000000e-01 0.000000000000000e+00
1.050000000000000e+01 1.000000000000000e+00 0.000000000000000e+00
1.000000000000000e+01 5.000000000000000e-01 0.000000000000000e+00
1.050000000000000e+01 0.000000000000000e+00 1.000000000000000e+00
1.100000000000000e+01 5.000000000000000e-01 1.000000000000000e+00
1.050000000000000e+01 1.000000000000000e+00 1.000000000000000e+00
1.000000000000000e+01 5.000000000000000e-01 1.000000000000000e+00
1.000000000000000e+01 0.000000000000000e+00 5.000000000000000e-01
1.100000000000000e+01 0.000000000000000e+00 5.000000000000000e-01
1.100000000000000e+01 1.000000000000000e+00 5.000000000000000e-01
1.000000000000000e+01 1.000000000000000e+00 5.000000000000000e-01
1.000000000000000e+01 5.000000000000000e-01 5.000000000000000e-01
1.100000000000000e+01 5.000000000000000e-01 5.000000000000000e-01
1.050000000000000e+01 0.000000000000000e+00 5.000000000000000e-01
1.050000000000000e+01 1.000000000000000e+00 5.000000000000000e-01
1.050000000000000e+01 5.000000000000000e-01 0.000000000000000e+00
1.050000000000000e+01 5.000000000000000e-01 1.000000000000000e+00
1.050000000000000e+01 5.000000000000000e-01 5.000000000000000e-01
        </DataArray>
      </Points>

      <Cells>
        <DataArray type="Int32" Name="connectivity" format="ascii">
0 1 2 3 4 5 6 7 8 9 10 11 12 13 14 15 16 17 18 19 20 21 22 23 24 25 26 27 28 29 30 31 32 33 34 35 36 37 38 39 40 41 42 43 44 45 46 47 48 49 50 51 52 53 54 55 56 57 58 59 60 61 62 
        </DataArray>
        <DataArray type="Int32" Name="offsets" format="ascii">
4 8 12 16 20 28 36 63 
        </DataArray>
        <DataArray type="UInt8" Name="types" format="ascii">
10 10 10 10 10 12 12 29 
        </DataArray>
      </Cells>

  <PointData>
        <DataArray type="Float64" Name="displacement" NumberOfComponents="3" format="ascii">
0.000000000000000e+00 0.000000000000000e+00 0.000000000000000e+00
0.000000000000000e+00 0.000000000000000e+00 0.000000000000000e+00
0.000000000000000e+00 0.000000000000000e+00 0.000000000000000e+00
-5.462813138520418e-04 -5.963229163245266e-04 -1.750891903511863e-04
0.000000000000000e+00 0.000000000000000e+00 0.000000000000000e+00
0.000000000000000e+00 0.000000000000000e+00 0.000000000000000e+00
0.000000000000000e+00 0.000000000000000e+00 0.000000000000000e+00
-5.963229163245728e-04 -5.462813138521107e-04 -1.750891903511887e-04
0.000000000000000e+00 0.000000000000000e+00 0.000000000000000e+00
-5.462813138520418e-04 -5.963229163245266e-04 -1.750891903511863e-04
-5.963229163245728e-04 -5.462813138521107e-04 -1.750891903511887e-04
-6.677804335697225e-04 -6.677804335697422e-04 -4.851338916868448e-04
0.000000000000000e+00 0.000000000000000e+00 0.000000000000000e+00
-5.963229163245728e-04 -5.462813138521107e-04 -1.750891903511887e-04
-5.462813138520418e-04 -5.963229163245266e-04 -1.750891903511863e-04
-6.175467085663559e-04 -6.175467085662819e-04 8.587263764573055e-05
0.000000000000000e+00 0.000000000000000e+00 0.000000000000000e+00
0.000000000000000e+00 0.000000000000000e+00 0.000000000000000e+00
-5.963229163245728e-04 -5.462813138521107e-04 -1.750891903511887e-04
-5.462813138520418e-04 -5.963229163245266e-04 -1.750891903511863e-04
0.000000000000000e+00 0.000000000000000e+00 0.000000000000000e+00
0.000000000000000e+00 0.000000000000000e+00 0.000000000000000e+00
0.000000000000000e+00 0.000000000000000e+00 0.000000000000000e+00
0.000000000000000e+00 0.000000000000000e+00 0.000000000000000e+00
-9.948213311299760e-04 -9.948213311297993e-04 -9.713093452927423e-04
-7.889238303169436e-04 -8.559243954097043e-04 -1.887075178369287e-04
-9.264268868020550e-04 -9.264268868018234e-04 5.959386353259559e-04
-8.559243954098281e-04 -7.889238303167658e-04 -1.887075178372835e-04
0.000000000000000e+00 0.000000000000000e+00 0.000000000000000e+00
0.000000000000000e+00 0.000000000000000e+00 0.000000000000000e+00
0.000000000000000e+00 0.000000000000000e+00 0.000000000000000e+00
0.000000000000000e+00 0.000000000000000e+00 0.000000000000000e+00
-1.091247187620410e-03 -1.091247187620714e-03 -1.549327969592547e-03
-1.266248643590035e-03 -1.351693971266815e-03 -1.925477713380993e-04
-1.001853985669948e-03 -1.001853985670208e-03 1.164015692320307e-03
-1.351693971266800e-03 -1.266248643590012e-03 -1.925477713378218e-04
0.000000000000000e+00 0.000000000000000e+00 0.000000000000000e+00
0.000000000000000e+00 0.000000000000000e+00 0.000000000000000e+00
0.000000000000000e+00 0.000000000000000e+00 0.000000000000000e+00
0.000000000000000e+00 0.000000000000000e+00 0.000000000000000e+00
-1.232234662037063e-03 -1.232234662037108e-03 -1.271989025120490e-03
-1.177305662316316e-03 -1.221309152794847e-03 -1.859211040699053e-04
-1.184465295531634e-03 -1.184465295531451e-03 9.007652136656634e-04
-1.221309152794851e-03 -1.177305662316270e-03 -1.859211040700405e-04
0.000000000000000e+00 0.000000000000000e+00 0.000000000000000e+00
0.000000000000000e+00 0.000000000000000e+00 0.000000000000000e+00
0.000000000000000e+00 0.000000000000000e+00 0.000000000000000e+00
0.000000000000000e+00 0.000000000000000e+00 0.000000000000000e+00
-1.222977269307685e-03 -1.248662882009571e-03 -7.719230507542095e-04
-1.199732890385699e-03 -1.220817988649286e-03 3.910317259599028e-04
-1.220817988649327e-03 -1.199732890385681e-03 3.910317259598748e-04
-1.248662882009577e-03 -1.222977269307614e-03 -7.719230507541742e-04
-5.791016144921632e-04 -5.791016144921942e-04 -9.016484089281947e-04
-3.853933742778444e-04 -4.357136128451258e-04 -9.910574402769772e-05
-5.263976684767416e-04 -5.263976684766629e-04 7.045366886784046e-04
-4.357136128451026e-04 -3.853933742777850e-04 -9.910574402771951e-05
-5.377439798024492e-04 -4.378460954649740e-04 -4.984936766757307e-04
-4.860274987630818e-04 -4.363294992755351e-04 3.090992213786363e-04
-4.378460954649896e-04 -5.377439798024496e-04 -4.984936766757006e-04
-4.363294992755490e-04 -4.860274987630608e-04 3.090992213785934e-04
0.000000000000000e+00 0.000000000000000e+00 0.000000000000000e+00
-1.235411512821109e-03 -1.235411512821055e-03 -1.944018400143192e-04
-4.651363155554071e-04 -4.651363155553864e-04 -9.023501190373766e-05
        </DataArray>
        <DataArray type="Float64" Name="nodal_GL_strains_xyz" NumberOfComponents="6" format="ascii">
-3.660008928139946e-05 -3.660008928145497e-05 2.530500954129877e-04 -1.159377784201144e-05 2.589025249828881e-04 2.589025249828692e-04
0.000000000000000e+00 0.000000000000000e+00 1.753721581512213e-04 0.000000000000000e+00 2.981966515627683e-04 2.731897147764439e-04
-9.022898762311993e-07 -9.022898763144660e-07 1.101835004283097e-04 2.410402156314148e-05 2.588994435666054e-04 2.588994435666237e-04
-3.125080129777469e-05 -3.125080129783020e-05 1.878615940267975e-04 6.258665861271001e-06 2.352346524781272e-04 2.289829182815563e-04
-9.022898762311993e-07 -9.022898763144660e-07 1.101835004283097e-04 2.410402156314148e-05 2.588994435666054e-04 2.588994435666237e-04
0.000000000000000e+00 0.000000000000000e+00 1.753721581512213e-04 0.000000000000000e+00 2.731897147765175e-04 2.981966515628398e-04
-3.660008928139946e-05 -3.660008928145497e-05 2.530500954129877e-04 -1.159377784201144e-05 2.589025249828881e-04 2.589025249828692e-04
-3.125080129777469e-05 -3.125080129783020e-05 1.878615940267975e-04 6.258665861271001e-06 2.289829182815644e-04 2.352346524781552e-04
-3.660008928139946e-05 -3.660008928145497e-05 2.530500954129877e-04 -1.159377784201144e-05 2.589025249828881e-04 2.589025249828692e-04
-3.125080129777469e-05 -3.125080129783020e-05 1.878615940267975e-04 6.258665861271001e-06 2.352346524781272e-04 2.289829182815563e-04
-3.125080129777469e-05 -3.125080129783020e-05 1.878615940267975e-04 6.258665861271001e-06 2.289829182815644e-04 2.352346524781552e-04
-1.213940456861740e-04 -1.213940456860629e-04 4.860845325451724e-04 -7.138142280748191e-05 1.785305504226049e-04 1.785305504225701e-04
-9.022898762311993e-07 -9.022898763144660e-07 1.101835004283097e-04 2.410402156314148e-05 2.588994435666054e-04 2.588994435666237e-04
-3.125080129777469e-05 -3.125080129783020e-05 1.878615940267975e-04 6.258665861271001e-06 2.289829182815644e-04 2.352346524781552e-04
-3.125080129777469e-05 -3.125080129783020e-05 1.878615940267975e-04 6.258665861271001e-06 2.352346524781272e-04 2.289829182815563e-04
2.139715193449909e-05 2.139715193449909e-05 -8.538184739353971e-05 7.140977481312977e-05 1.785182247574738e-04 1.785182247575877e-04
-3.660008928139946e-05 -3.660008928145497e-05 2.530500954129877e-04 -1.159377784201144e-05 2.589025249828881e-04 2.589025249828692e-04
-9.022898762311993e-07 -9.022898763144660e-07 1.101835004283097e-04 2.410402156314148e-05 2.588994435666054e-04 2.588994435666237e-04
-3.125080129777469e-05 -3.125080129783020e-05 1.878615940267975e-04 6.258665861271001e-06 2.289829182815644e-04 2.352346524781552e-04
-3.125080129777469e-05 -3.125080129783020e-05 1.878615940267975e-04 6.258665861271001e-06 2.352346524781272e-04 2.289829182815563e-04
-5.420279687907708e-08 -5.420279638890059e-08 9.741249962208093e-04 -5.595869982207532e-08 4.974278710559692e-04 4.974278710560943e-04
-5.420279575797519e-08 -5.119039867052032e-08 1.894169133789908e-04 -4.806996260423325e-08 4.281242402428033e-04 3.947351928764092e-04
-5.119039869880127e-08 -5.119039873399358e-08 -5.948647411263969e-04 -5.294630268840739e-08 4.638062626322092e-04 4.638062626324139e-04
-5.119039973067099e-08 -5.420279681812607e-08 1.894169133796570e-04 -4.806996260430082e-08 3.947351928763730e-04 4.281242402427585e-04
-2.051143423776869e-04 -2.051143423778182e-04 9.741249962211678e-04 -1.383274681273878e-04 1.049112212457759e-04 1.049112212457385e-04
-2.051143423769880e-04 7.161999677536332e-05 1.894169133801376e-04 7.788755858299879e-09 3.582984179201517e-05 2.543759844654328e-06
7.161999677559078e-05 7.161999677560023e-05 -5.948647411263711e-04 1.384068710252800e-04 7.181900657721850e-05 7.181900657726096e-05
7.161999677613504e-05 -2.051143423762164e-04 1.894169133794715e-04 7.788755523551166e-09 2.543759844778276e-06 3.582984179181326e-05
-4.811137132047563e-04 -4.811137132059593e-04 1.073949937380695e-03 -1.563111613636661e-07 5.451694198515070e-04 5.451694198514936e-04
-2.855152724107910e-05 -2.854924092882730e-05 1.677651995665375e-04 -1.476274277214393e-07 6.769470584143945e-04 6.341373274814096e-04
4.250203160921622e-04 4.250203160927791e-04 -7.392274655933782e-04 -1.543168780291534e-07 5.028085885350492e-04 5.028085885349356e-04
-2.854924092822335e-05 -2.855152724112246e-05 1.677651995666782e-04 -1.476274277213899e-07 6.341373274815313e-04 6.769470584143723e-04
-4.222595069743434e-04 -4.222595069745439e-04 9.549691470174256e-04 2.630318462187157e-04 -1.347427586078030e-04 -1.347427586076828e-04
2.055542072839771e-04 -3.205936941312097e-04 2.242045977613230e-04 1.578438358145484e-07 -3.281180346521997e-06 -4.548455484576235e-05
3.085146656421401e-04 3.085146656424273e-04 -5.073730904584268e-04 -2.631160728459446e-04 -1.771285645152833e-04 -1.771285645152596e-04
-3.205936941315029e-04 2.055542072839982e-04 2.242045977607975e-04 1.578438357998944e-07 -4.548455484577920e-05 -3.281180346410546e-06
-1.183415858686786e-07 -1.183415859333191e-07 2.341439000919902e-03 -9.381174762029975e-08 5.414639118879486e-04 5.414639118880923e-04
-5.947804129193106e-08 -7.733023807184775e-08 2.089991821022829e-04 -5.901069291451555e-08 2.605243217687653e-04 1.821863763019627e-04
-9.073396801418464e-08 -9.073396796448413e-08 -1.918731709727416e-03 -7.801786646458277e-08 4.622081622293395e-04 4.622081622289716e-04
-7.733023793740160e-08 -5.947804026293680e-08 2.089991821014988e-04 -5.901069291559380e-08 1.821863763024174e-04 2.605243217689754e-04
1.939697253320297e-05 1.939697253365081e-05 2.152218800738746e-04 7.821865548250484e-05 2.332325535084316e-04 2.332325535082190e-04
-1.252575590610976e-04 3.759028212659606e-05 1.697244044046343e-04 -5.641398560610854e-06 3.508192939726538e-04 3.660359979672569e-04
-1.070557055510232e-04 -1.070557055507694e-04 1.212830917456843e-04 -6.692686508105271e-05 2.480687615787196e-04 2.480687615791104e-04
3.759028212663406e-05 -1.252575590604040e-04 1.697244044045906e-04 -5.641398560098346e-06 3.660359979665909e-04 3.508192939726189e-04
-8.167425908245051e-08 -8.445272240436592e-08 1.223581486339358e-03 -7.315797217153321e-08 4.508125975176797e-04 2.635849848395655e-04
-6.108939051707463e-08 -7.603492640588088e-08 -8.476444913618613e-04 -6.472591965199792e-08 2.629135423658533e-04 3.731866832074524e-04
-7.603492554952040e-08 -6.108939032578071e-08 -8.476444913622060e-04 -6.472591965175422e-08 3.731866832074498e-04 2.629135423658499e-04
-8.445272255400954e-08 -8.167425989702854e-08 1.223581486339819e-03 -7.315797217223776e-08 2.635849848395333e-04 4.508125975176050e-04
-5.293393959269545e-05 -1.835834501180010e-06 3.299485603510537e-04 2.252986415682374e-05 2.238872421238091e-04 4.159401444570569e-04
-9.147375666900383e-05 -3.473327731649177e-05 7.060493067790282e-05 -2.253630118247551e-05 4.159645785118914e-04 2.384066522313583e-04
-3.473327731677597e-05 -9.147375666875868e-05 7.060493067830197e-05 -2.253630118262564e-05 2.384066522316281e-04 4.159645785118089e-04
-1.835834501753570e-06 -5.293393959273960e-05 3.299485603505857e-04 2.252986415672581e-05 4.159401444571682e-04 2.238872421239550e-04
-3.710705343860390e-04 -3.710705343871442e-04 1.277846316998758e-03 -2.111284929129540e-05 2.094937164884883e-04 2.094937164885665e-04
-1.431006323247550e-05 -8.648267444927985e-05 1.887500246650220e-04 -2.996254340200823e-07 1.962319347184910e-04 1.909551385164884e-04
2.711538492888663e-04 2.711538492891944e-04 -8.992565840975635e-04 2.144655302417456e-05 2.047800212655608e-04 2.047800212658135e-04
-8.648267444906154e-05 -1.431006323321939e-05 1.887500246649264e-04 -2.996254340573416e-07 1.909551385165083e-04 1.962319347183393e-04
-2.376766564152047e-04 -1.927135822065859e-04 7.763811863946568e-04 -1.514313968575104e-05 2.092749229090480e-04 2.108263308431626e-04
1.370483049897874e-04 9.231197068085772e-05 -3.889704326826977e-04 1.489967955074594e-05 2.095506605969746e-04 2.058224999134953e-04
-1.927135822073167e-04 -2.376766564149665e-04 7.763811863946777e-04 -1.514313968580021e-05 2.108263308431217e-04 2.092749229089989e-04
9.231197068070029e-05 1.370483049898822e-04 -3.889704326825336e-04 1.489967955072744e-05 2.058224999134755e-04 2.095506605969224e-04
-6.341285514091223e-08 -6.341285461605674e-08 1.653102593729133e-04 -6.301844748550647e-08 3.127086517355855e-04 3.127086517355482e-04
-4.664595818057869e-05 -4.664595818077048e-05 2.304248662456474e-04 -2.487769014260936e-10 3.416242137266072e-04 3.416242137265579e-04
-5.033822033090329e-05 -5.033822033101432e-05 1.974929835839578e-04 -1.795207519177217e-07 2.139346343314977e-04 2.139346343315365e-04
        </DataArray>
        <DataArray type="Float64" Name="nodal_cauchy_stresses_xyz" NumberOfComponents="6" format="ascii">
1.065780281633116e-01 1.065780281632263e-01 6.847638785149165e-01 -2.284856271386537e-02 5.179564012680741e-01 5.179564012680364e-01
1.752669562275091e-01 1.753241007166435e-01 5.249973133850386e-01 3.258000080625615e-04 5.963933031255367e-01 5.463794295528877e-01
1.065651436518860e-01 1.065651436517437e-01 3.277206095683652e-01 4.853092105745881e-02 5.177706388510492e-01 5.177706388510859e-01
6.284040055379780e-02 6.285468667599602e-02 4.999809530171809e-01 1.285480501274095e-02 4.705852633076865e-01 4.580817949145447e-01
1.065651436518860e-01 1.065651436517437e-01 3.277206095683652e-01 4.853092105745881e-02 5.177706388510492e-01 5.177706388510859e-01
1.753241007166438e-01 1.752669562275094e-01 5.249973133850386e-01 3.258000080627272e-04 5.463794295530349e-01 5.963933031256795e-01
1.065780281633116e-01 1.065780281632263e-01 6.847638785149165e-01 -2.284856271386537e-02 5.179564012680741e-01 5.179564012680364e-01
6.285468667608149e-02 6.284040055371250e-02 4.999809530171809e-01 1.285480501274100e-02 4.580817949145610e-01 4.705852633077426e-01
1.065780281633116e-01 1.065780281632263e-01 6.847638785149165e-01 -2.284856271386537e-02 5.179564012680741e-01 5.179564012680364e-01
6.284040055379780e-02 6.285468667599602e-02 4.999809530171809e-01 1.285480501274095e-02 4.705852633076865e-01 4.580817949145447e-01
6.285468667608149e-02 6.284040055371250e-02 4.999809530171809e-01 1.285480501274100e-02 4.580817949145610e-01 4.705852633077426e-01
4.251283242911581e-04 4.251283245185494e-04 1.214038687180302e+00 -1.423786641708087e-01 3.576379273795838e-01 3.576379273795144e-01
1.065651436518860e-01 1.065651436517437e-01 3.277206095683652e-01 4.853092105745881e-02 5.177706388510492e-01 5.177706388510859e-01
6.285468667608149e-02 6.284040055371250e-02 4.999809530171809e-01 1.285480501274100e-02 4.580817949145610e-01 4.705852633077426e-01
6.284040055379780e-02 6.285468667599602e-02 4.999809530171809e-01 1.285480501274095e-02 4.705852633076865e-01 4.580817949145447e-01
3.735902785887313e-04 3.735902785881037e-04 -2.141343886059032e-01 1.431392709144880e-01 3.568948777114843e-01 3.568948777117124e-01
1.065780281633116e-01 1.065780281632263e-01 6.847638785149165e-01 -2.284856271386537e-02 5.179564012680741e-01 5.179564012680364e-01
1.065651436518860e-01 1.065651436517437e-01 3.277206095683652e-01 4.853092105745881e-02 5.177706388510492e-01 5.177706388510859e-01
6.285468667608149e-02 6.284040055371250e-02 4.999809530171809e-01 1.285480501274100e-02 4.580817949145610e-01 4.705852633077426e-01
6.284040055379780e-02 6.285468667599602e-02 4.999809530171809e-01 1.285480501274095e-02 4.705852633076865e-01 4.580817949145447e-01
9.723332302906947e-01 9.723332302917183e-01 2.915934272227926e+00 9.909203556850445e-04 9.948642318098270e-01 9.948642318100771e-01
1.897774227157843e-01 1.898873823463640e-01 5.667845069042265e-01 6.652362000850434e-04 8.562570559307803e-01 7.894789538539088e-01
-5.952385490631015e-01 -5.952385490631543e-01 -1.788048417537707e+00 8.631195666273434e-04 9.276210663992105e-01 9.276210663996193e-01
1.898873823427814e-01 1.897774227121189e-01 5.667845069041025e-01 6.652362000847711e-04 7.894789538538391e-01 8.562570559306937e-01
1.532866113420566e-01 1.532866113417100e-01 2.509317566432249e+00 -2.760825095783692e-01 2.120223999073138e-01 2.120223999072387e-01
-3.538334936095084e-01 1.997073099024626e-01 4.350678345357275e-01 1.662146950607209e-04 7.183796017027583e-02 5.733239282499816e-03
-3.082738924735982e-01 -3.082738924736568e-01 -1.642569194096021e+00 2.772194311521621e-01 1.423516523001951e-01 1.423516523002799e-01
1.997073099046509e-01 -3.538334936070092e-01 4.350678345352611e-01 1.662146943911212e-04 5.733239282745495e-03 7.183796016987021e-02
-8.509956848989294e-01 -8.509956849013692e-01 2.254324666102096e+00 1.192655425292256e-03 1.092112952421182e+00 1.092112952421153e+00
5.444799720457964e-02 5.466224299464544e-02 4.411071289973896e-01 1.683610036809469e-03 1.353969823016495e+00 1.268343134209539e+00
9.608792823629999e-01 9.608792823642854e-01 -1.371243757758460e+00 1.002266715485959e-03 1.004058007022785e+00 1.004058007022560e+00
5.466224299671404e-02 5.444799720523946e-02 4.411071289985041e-01 1.683610036809734e-03 1.268343134209783e+00 1.353969823016449e+00
-7.351466237699988e-01 -7.351466237704871e-01 2.020082067081564e+00 5.255725317471867e-01 -2.665660785797370e-01 -2.665660785794980e-01
5.207606979430764e-01 -5.312112152458424e-01 5.576695743307339e-01 6.310261931334140e-04 -5.185704331603445e-03 -9.089450785974859e-02
7.260437364619144e-01 7.260437364624253e-01 -9.038862637727552e-01 -5.268056493352699e-01 -3.557483692885780e-01 -3.557483692885298e-01
-5.312112152476820e-01 5.207606979421888e-01 5.576695743284362e-01 6.310261931043793e-04 -9.089450785978365e-02 -5.185704331381158e-03
2.329773957079699e+00 2.329773957079531e+00 6.998338213320228e+00 1.225085349014557e-03 1.083231985639515e+00 1.083231985639803e+00
2.085842841017983e-01 2.087049535558941e-01 6.256606121845985e-01 2.379012128928845e-04 5.209808184708200e-01 3.644405412766671e-01
-1.926679477244057e+00 -1.926679477244034e+00 -5.774116855955922e+00 8.912709651798471e-04 9.242225528871533e-01 9.242225528864177e-01
2.087049535563547e-01 2.085842841040117e-01 6.256606121831324e-01 2.379012128913637e-04 3.644405412775731e-01 5.209808184712383e-01
2.928404184633023e-01 2.928404184641807e-01 6.810378202198814e-01 1.573794550047981e-01 4.663318863705890e-01 4.663318863701644e-01
-1.666049357223697e-01 1.588680499775102e-01 4.165666600417952e-01 -8.966757521146000e-03 7.019700278603921e-01 7.330511511288594e-01
-3.065608415966627e-01 -3.065608415965485e-01 1.464549275571891e-01 -1.327628758196356e-01 4.970604418273614e-01 4.970604418281445e-01
1.588680499782544e-01 -1.666049357204483e-01 4.165666600422968e-01 -8.966757520124321e-03 7.330511511275245e-01 7.019700278603203e-01
1.219970995704510e+00 1.220510698367422e+00 3.662606582526877e+00 4.999360875073352e-04 9.016425443988808e-01 5.271892039236126e-01
-8.491862841384120e-01 -8.494948927700369e-01 -2.547549919896092e+00 4.110380752060022e-04 5.257877805115185e-01 7.463942214702756e-01
-8.494948927674764e-01 -8.491862841371122e-01 -2.547549919895940e+00 4.110380752065660e-04 7.463942214702699e-01 5.257877805115103e-01
1.220510698366532e+00 1.219970995702360e+00 3.662606582527294e+00 4.999360875057906e-04 5.271892039235506e-01 9.016425443987321e-01
1.710085688628895e-01 2.718599739103919e-01 9.304741736484160e-01 4.679594125027759e-02 4.484467283057084e-01 8.328040234702863e-01
-2.378092346641090e-01 -1.231502997034908e-01 8.133677987184995e-02 -4.324283815758842e-02 8.323128454336013e-01 4.773835478668458e-01
-1.231502997038365e-01 -2.378092346632661e-01 8.133677987295601e-02 -4.324283815788817e-02 4.773835478673861e-01 8.323128454334390e-01
2.718599739080671e-01 1.710085688617508e-01 9.304741736463553e-01 4.679594125008251e-02 8.328040234705082e-01 4.484467283060003e-01
-2.077351172563049e-01 -2.077351172585161e-01 3.085706952183559e+00 -4.134019478023599e-02 4.221829399964274e-01 4.221829399965802e-01
5.993453169979435e-02 -8.434563415022854e-02 4.637566481112035e-01 1.383682688806974e-04 3.928875091229770e-01 3.823829008228693e-01
1.850022581712341e-01 1.850022581719562e-01 -2.159107137351759e+00 4.371497648949550e-02 4.073527207388422e-01 4.073527207393487e-01
-8.434563415032245e-02 5.993453169783321e-02 4.637566481105200e-01 1.383682688061710e-04 3.823829008229107e-01 3.928875091226734e-01
-1.293669436732584e-01 -3.951424435305888e-02 1.895432918841641e+00 -2.942343453449789e-02 4.204580891933752e-01 4.235891555924076e-01
1.149697644527619e-01 2.549714083146826e-02 -9.397280678113498e-01 3.062667390944427e-02 4.181033308851794e-01 4.106817068940552e-01
-3.951424435494061e-02 -1.293669436733081e-01 1.895432918841223e+00 -2.942343453459622e-02 4.235891555923263e-01 4.204580891932786e-01
2.549714083149360e-02 1.149697644531528e-01 -9.397280678107417e-01 3.062667390940717e-02 4.106817068940154e-01 4.181033308850759e-01
1.651366296797665e-01 1.651366296807658e-01 4.942744061569999e-01 3.910578639826345e-04 6.254025106770622e-01 6.254025106769885e-01
4.530268363617553e-02 4.530268363570775e-02 5.934452755590132e-01 1.974479472862211e-03 6.840037088164910e-01 6.840037088163914e-01
-3.215459424966013e-03 -3.215459425079706e-03 4.897717122156752e-01 5.167807526295120e-04 4.283334942156677e-01 4.283334942157451e-01
        </DataArray>
  </PointData>
  <CellData>
        <DataArray type="Float64" Name="element_GL_strains_xyz" NumberOfComponents="6" format="ascii">
0.000000000000000e+00 0.000000000000000e+00 1.753721581512213e-04 0.000000000000000e+00 2.981966515627683e-04 2.731897147764439e-04
0.000000000000000e+00 0.000000000000000e+00 1.753721581512213e-04 0.000000000000000e+00 2.731897147765175e-04 2.981966515628398e-04
-1.213940456861740e-04 -1.213940456860629e-04 4.860845325451724e-04 -7.138142280748191e-05 1.785305504226049e-04 1.785305504225701e-04
2.139715193449909e-05 2.139715193449909e-05 -8.538184739353971e-05 7.140977481312977e-05 1.785182247574738e-04 1.785182247575877e-04
-2.500631143942389e-05 -2.500631143975696e-05 1.753715328043359e-04 2.500631143943614e-05 2.856931831696617e-04 2.856931831696233e-04
-3.339993469925195e-05 -3.339993469921032e-05 1.895235204634332e-04 -1.375806480560671e-08 2.498996745333928e-04 2.498996745333929e-04
-4.274731168270318e-05 -4.274731168280727e-05 1.957822653752064e-04 -4.680273130625584e-08 2.498031669958867e-04 2.498031669958869e-04
-3.928341036063543e-05 -3.928341036057786e-05 1.944895356232652e-04 -9.393737905860581e-08 2.573400938593683e-04 2.573400938593654e-04
        </DataArray>
        <DataArray type="Float64" Name="element_cauchy_stresses_xyz" NumberOfComponents="6" format="ascii">
1.752669562275091e-01 1.753241007166435e-01 5.249973133850386e-01 3.258000080625615e-04 5.963933031255367e-01 5.463794295528877e-01
1.753241007166438e-01 1.752669562275094e-01 5.249973133850386e-01 3.258000080627272e-04 5.463794295530349e-01 5.963933031256795e-01
4.251283242911581e-04 4.251283245185494e-04 1.214038687180302e+00 -1.423786641708087e-01 3.576379273795838e-01 3.576379273795144e-01
3.735902785887313e-04 3.735902785881037e-04 -2.141343886059032e-01 1.431392709144880e-01 3.568948777114843e-01 3.568948777117124e-01
7.529592738480226e-02 7.529592738423393e-02 4.750222001092869e-01 5.033281329922192e-02 5.714149450141410e-01 5.714149450140642e-01
5.595575268121990e-02 5.595575268131916e-02 4.997923637382206e-01 5.817329107158657e-04 5.000208199567732e-01 5.000208199567733e-01
2.493005413158427e-02 2.493005413138576e-02 4.996037647884385e-01 6.988846265689919e-04 5.000111570763178e-01 5.000111570763178e-01
3.744024777110513e-02 3.744024777122321e-02 5.014057149077862e-01 8.073237300484433e-04 5.150939293279858e-01 5.150939293279800e-01
        </DataArray>
      </CellData>

    </Piece>
  </UnstructuredGrid>
</VTKFile>
