<?xml version="1.0" ?> 
<!-- 
# vtk DataFile Version 3.0
-->
<VTKFile type="UnstructuredGrid" version="0.1" compressor="vtkZLibDataCompressor" byte_order="LittleEndian">
  <UnstructuredGrid>
    <FieldData>
      <DataArray type="Float64" Name="TIME" NumberOfTuples="1" format="ascii">
1.000000000000000e+01 
      </DataArray>
    </FieldData>

    <Piece NumberOfPoints="114" NumberOfCells="12" >
      <Points>
        <DataArray type="Float64" NumberOfComponents="3" format="ascii">
0.000000000000000e+00 0.000000000000000e+00 0.000000000000000e+00
1.000000000000000e+00 0.000000000000000e+00 0.000000000000000e+00
1.000000000000000e+00 1.000000000000000e+00 0.000000000000000e+00
0.000000000000000e+00 1.000000000000000e+00 0.000000000000000e+00
0.000000000000000e+00 0.000000000000000e+00 1.000000000000000e+00
1.000000000000000e+00 0.000000000000000e+00 1.000000000000000e+00
1.000000000000000e+00 1.000000000000000e+00 1.000000000000000e+00
0.000000000000000e+00 1.000000000000000e+00 1.000000000000000e+00
1.000000000000000e+00 0.000000000000000e+00 0.000000000000000e+00
2.000000000000000e+00 0.000000000000000e+00 0.000000000000000e+00
2.000000000000000e+00 1.000000000000000e+00 0.000000000000000e+00
1.000000000000000e+00 1.000000000000000e+00 0.000000000000000e+00
1.000000000000000e+00 0.000000000000000e+00 1.000000000000000e+00
2.000000000000000e+00 0.000000000000000e+00 1.000000000000000e+00
2.000000000000000e+00 1.000000000000000e+00 1.000000000000000e+00
1.000000000000000e+00 1.000000000000000e+00 1.000000000000000e+00
2.000000000000000e+00 0.000000000000000e+00 0.000000000000000e+00
3.000000000000000e+00 0.000000000000000e+00 0.000000000000000e+00
3.000000000000000e+00 1.000000000000000e+00 0.000000000000000e+00
2.000000000000000e+00 1.000000000000000e+00 0.000000000000000e+00
2.000000000000000e+00 0.000000000000000e+00 1.000000000000000e+00
3.000000000000000e+00 0.000000000000000e+00 1.000000000000000e+00
3.000000000000000e+00 1.000000000000000e+00 1.000000000000000e+00
2.000000000000000e+00 1.000000000000000e+00 1.000000000000000e+00
0.000000000000000e+00 1.500000000000000e+00 1.000000000000000e+00
0.000000000000000e+00 1.500000000000000e+00 0.000000000000000e+00
0.000000000000000e+00 2.000000000000000e+00 5.000000000000000e-01
5.000000000000000e-01 1.500000000000000e+00 5.000000000000000e-01
0.000000000000000e+00 1.500000000000000e+00 5.000000000000000e-01
0.000000000000000e+00 1.750000000000000e+00 2.500000000000000e-01
0.000000000000000e+00 1.750000000000000e+00 7.500000000000000e-01
2.500000000000000e-01 1.500000000000000e+00 7.500000000000000e-01
2.500000000000000e-01 1.500000000000000e+00 2.500000000000000e-01
2.500000000000000e-01 1.750000000000000e+00 5.000000000000000e-01
0.000000000000000e+00 1.500000000000000e+00 0.000000000000000e+00
0.000000000000000e+00 2.500000000000000e+00 0.000000000000000e+00
0.000000000000000e+00 2.000000000000000e+00 5.000000000000000e-01
5.000000000000000e-01 2.000000000000000e+00 0.000000000000000e+00
0.000000000000000e+00 2.000000000000000e+00 0.000000000000000e+00
0.000000000000000e+00 2.250000000000000e+00 2.500000000000000e-01
0.000000000000000e+00 1.750000000000000e+00 2.500000000000000e-01
2.500000000000000e-01 1.750000000000000e+00 0.000000000000000e+00
2.500000000000000e-01 2.250000000000000e+00 0.000000000000000e+00
2.500000000000000e-01 2.000000000000000e+00 2.500000000000000e-01
0.000000000000000e+00 2.500000000000000e+00 1.000000000000000e+00
0.000000000000000e+00 1.500000000000000e+00 1.000000000000000e+00
0.000000000000000e+00 2.000000000000000e+00 5.000000000000000e-01
5.000000000000000e-01 2.000000000000000e+00 1.000000000000000e+00
0.000000000000000e+00 2.000000000000000e+00 1.000000000000000e+00
0.000000000000000e+00 1.750000000000000e+00 7.500000000000000e-01
0.000000000000000e+00 2.250000000000000e+00 7.500000000000000e-01
2.500000000000000e-01 2.250000000000000e+00 1.000000000000000e+00
2.500000000000000e-01 1.750000000000000e+00 1.000000000000000e+00
2.500000000000000e-01 2.000000000000000e+00 7.500000000000000e-01
0.000000000000000e+00 1.500000000000000e+00 0.000000000000000e+00
1.000000000000000e+00 1.500000000000000e+00 0.000000000000000e+00
5.000000000000000e-01 2.000000000000000e+00 0.000000000000000e+00
5.000000000000000e-01 1.500000000000000e+00 5.000000000000000e-01
5.000000000000000e-01 1.500000000000000e+00 0.000000000000000e+00
7.500000000000000e-01 1.750000000000000e+00 0.000000000000000e+00
2.500000000000000e-01 1.750000000000000e+00 0.000000000000000e+00
2.500000000000000e-01 1.500000000000000e+00 2.500000000000000e-01
7.500000000000000e-01 1.500000000000000e+00 2.500000000000000e-01
5.000000000000000e-01 1.750000000000000e+00 2.500000000000000e-01
0.000000000000000e+00 2.000000000000000e+00 5.000000000000000e-01
5.000000000000000e-01 1.500000000000000e+00 5.000000000000000e-01
5.000000000000000e-01 2.000000000000000e+00 1.000000000000000e+00
0.000000000000000e+00 1.500000000000000e+00 1.000000000000000e+00
2.500000000000000e-01 1.750000000000000e+00 5.000000000000000e-01
5.000000000000000e-01 1.750000000000000e+00 7.500000000000000e-01
2.500000000000000e-01 2.000000000000000e+00 7.500000000000000e-01
0.000000000000000e+00 1.750000000000000e+00 7.500000000000000e-01
2.500000000000000e-01 1.500000000000000e+00 7.500000000000000e-01
2.500000000000000e-01 1.750000000000000e+00 1.000000000000000e+00
0.000000000000000e+00 2.000000000000000e+00 5.000000000000000e-01
5.000000000000000e-01 2.000000000000000e+00 0.000000000000000e+00
5.000000000000000e-01 1.500000000000000e+00 5.000000000000000e-01
0.000000000000000e+00 1.500000000000000e+00 0.000000000000000e+00
2.500000000000000e-01 2.000000000000000e+00 2.500000000000000e-01
5.000000000000000e-01 1.750000000000000e+00 2.500000000000000e-01
2.500000000000000e-01 1.750000000000000e+00 5.000000000000000e-01
0.000000000000000e+00 1.750000000000000e+00 2.500000000000000e-01
2.500000000000000e-01 1.750000000000000e+00 0.000000000000000e+00
2.500000000000000e-01 1.500000000000000e+00 2.500000000000000e-01
0.000000000000000e+00 2.000000000000000e+00 5.000000000000000e-01
5.000000000000000e-01 2.500000000000000e+00 5.000000000000000e-01
5.000000000000000e-01 2.000000000000000e+00 0.000000000000000e+00
0.000000000000000e+00 2.500000000000000e+00 0.000000000000000e+00
2.500000000000000e-01 2.250000000000000e+00 5.000000000000000e-01
5.000000000000000e-01 2.250000000000000e+00 2.500000000000000e-01
2.500000000000000e-01 2.000000000000000e+00 2.500000000000000e-01
0.000000000000000e+00 2.250000000000000e+00 2.500000000000000e-01
2.500000000000000e-01 2.500000000000000e+00 2.500000000000000e-01
2.500000000000000e-01 2.250000000000000e+00 0.000000000000000e+00
1.000000000000000e+00 2.000000000000000e+00 5.000000000000000e-01
5.000000000000000e-01 1.500000000000000e+00 5.000000000000000e-01
5.000000000000000e-01 2.000000000000000e+00 0.000000000000000e+00
1.000000000000000e+00 1.500000000000000e+00 0.000000000000000e+00
7.500000000000000e-01 1.750000000000000e+00 5.000000000000000e-01
5.000000000000000e-01 1.750000000000000e+00 2.500000000000000e-01
7.500000000000000e-01 2.000000000000000e+00 2.500000000000000e-01
1.000000000000000e+00 1.750000000000000e+00 2.500000000000000e-01
7.500000000000000e-01 1.500000000000000e+00 2.500000000000000e-01
7.500000000000000e-01 1.750000000000000e+00 0.000000000000000e+00
0.000000000000000e+00 2.000000000000000e+00 5.000000000000000e-01
5.000000000000000e-01 1.500000000000000e+00 5.000000000000000e-01
5.000000000000000e-01 2.000000000000000e+00 0.000000000000000e+00
5.000000000000000e-01 2.000000000000000e+00 5.000000000000000e-01
2.500000000000000e-01 1.750000000000000e+00 5.000000000000000e-01
5.000000000000000e-01 1.750000000000000e+00 2.500000000000000e-01
2.500000000000000e-01 2.000000000000000e+00 2.500000000000000e-01
2.500000000000000e-01 2.000000000000000e+00 5.000000000000000e-01
5.000000000000000e-01 1.750000000000000e+00 5.000000000000000e-01
5.000000000000000e-01 2.000000000000000e+00 2.500000000000000e-01
        </DataArray>
      </Points>

      <Cells>
        <DataArray type="Int32" Name="connectivity" format="ascii">
0 1 2 3 4 5 6 7 8 9 10 11 12 13 14 15 16 17 18 19 20 21 22 23 24 25 26 27 28 29 30 31 32 33 34 35 36 37 38 39 40 41 42 43 44 45 46 47 48 49 50 51 52 53 54 55 56 57 58 59 60 61 62 63 64 65 66 67 68 69 70 71 72 73 74 75 76 77 78 79 80 81 82 83 84 85 86 87 88 89 90 91 92 93 94 95 96 97 98 99 100 101 102 103 104 105 106 107 108 109 110 111 112 113 
        </DataArray>
        <DataArray type="Int32" Name="offsets" format="ascii">
8 16 24 34 44 54 64 74 84 94 104 114 
        </DataArray>
        <DataArray type="UInt8" Name="types" format="ascii">
12 12 12 24 24 24 24 24 24 24 24 24 
        </DataArray>
      </Cells>

  <PointData>
        <DataArray type="Float64" Name="current_reference_density" format="ascii">
1.031645593398673e+00
1.031635728901433e+00
1.031635728901434e+00
1.031645593398671e+00
1.031645593398673e+00
1.031635728901433e+00
1.031635728901432e+00
1.031645593398672e+00
1.031635728901433e+00
1.031627036352117e+00
1.031627036352118e+00
1.031635728901434e+00
1.031635728901433e+00
1.031627036352118e+00
1.031627036352118e+00
1.031635728901432e+00
1.031627036352117e+00
1.031628208300040e+00
1.031628208300040e+00
1.031627036352118e+00
1.031627036352118e+00
1.031628208300044e+00
1.031628208300043e+00
1.031627036352118e+00
1.031656013563702e+00
1.031656013563702e+00
1.031698445493320e+00
1.031630979169373e+00
1.031663192648010e+00
1.031679711268600e+00
1.031679711268600e+00
1.031641738812817e+00
1.031641738812818e+00
1.031662500595766e+00
1.031656013563702e+00
1.031656013563703e+00
1.031698445493320e+00
1.031630979169373e+00
1.031663192648010e+00
1.031679711268601e+00
1.031679711268600e+00
1.031641738812818e+00
1.031641738812818e+00
1.031662500595765e+00
1.031657146939171e+00
1.031656013563702e+00
1.031698445493320e+00
1.031629030869695e+00
1.031663192648011e+00
1.031679711268600e+00
1.031679711268601e+00
1.031640689086277e+00
1.031641738812818e+00
1.031662500595765e+00
1.031656013563702e+00
1.031627561321682e+00
1.031630979169373e+00
1.031630979169373e+00
1.031630605716481e+00
1.031631391296045e+00
1.031641738812818e+00
1.031641738812818e+00
1.031631391296044e+00
1.031630154052739e+00
1.031698445493320e+00
1.031630979169373e+00
1.031629030869695e+00
1.031656013563702e+00
1.031662500595766e+00
1.031630154052739e+00
1.031662500595765e+00
1.031679711268600e+00
1.031641738812817e+00
1.031641738812818e+00
1.031698445493320e+00
1.031630979169373e+00
1.031630979169373e+00
1.031656013563702e+00
1.031662500595765e+00
1.031630154052739e+00
1.031662500595766e+00
1.031679711268600e+00
1.031641738812818e+00
1.031641738812818e+00
1.031698445493320e+00
1.031629030869694e+00
1.031630979169373e+00
1.031656013563703e+00
1.031662500595764e+00
1.031630154052738e+00
1.031662500595765e+00
1.031679711268601e+00
1.031641738812818e+00
1.031641738812818e+00
1.031630591844710e+00
1.031630979169373e+00
1.031630979169373e+00
1.031627561321682e+00
1.031632497713086e+00
1.031630154052739e+00
1.031632497713087e+00
1.031628452644087e+00
1.031631391296044e+00
1.031631391296045e+00
1.031698445493320e+00
1.031630979169373e+00
1.031630979169373e+00
1.031650632575337e+00
1.031662500595766e+00
1.031630154052739e+00
1.031662500595765e+00
1.031669589812669e+00
1.031638800402826e+00
1.031638800402826e+00
        </DataArray>
        <DataArray type="Float64" Name="displacement" NumberOfComponents="3" format="ascii">
5.000000000000002e-01 -3.527846277653871e-03 -3.527846277654081e-03
5.161495788669505e-01 -3.983764843547873e-03 -3.983764843547597e-03
5.161495788669508e-01 3.983764843547845e-03 -3.983764843547810e-03
5.000000000000001e-01 3.527846277653875e-03 -3.527846277653791e-03
4.999999999999990e-01 -3.527846277654034e-03 3.527846277654087e-03
5.161495788669505e-01 -3.983764843547692e-03 3.983764843547617e-03
5.161495788669508e-01 3.983764843547539e-03 3.983764843547819e-03
5.000000000000004e-01 3.527846277654029e-03 3.527846277653785e-03
5.161495788669505e-01 -3.983764843547873e-03 -3.983764843547597e-03
5.322866066077355e-01 -3.927966250477166e-03 -3.927966250477073e-03
5.322866066077366e-01 3.927966250476995e-03 -3.927966250477214e-03
5.161495788669508e-01 3.983764843547845e-03 -3.983764843547810e-03
5.161495788669505e-01 -3.983764843547692e-03 3.983764843547617e-03
5.322866066077357e-01 -3.927966250477438e-03 3.927966250477144e-03
5.322866066077359e-01 3.927966250477199e-03 3.927966250477296e-03
5.161495788669508e-01 3.983764843547539e-03 3.983764843547819e-03
5.322866066077355e-01 -3.927966250477166e-03 -3.927966250477073e-03
5.484251447913848e-01 -3.935605355049609e-03 -3.935605355049928e-03
5.484251447913857e-01 3.935605355049423e-03 -3.935605355049847e-03
5.322866066077366e-01 3.927966250476995e-03 -3.927966250477214e-03
5.322866066077357e-01 -3.927966250477438e-03 3.927966250477144e-03
5.484251447913864e-01 -3.935605355050414e-03 3.935605355049810e-03
5.484251447913858e-01 3.935605355050303e-03 3.935605355050008e-03
5.322866066077359e-01 3.927966250477199e-03 3.927966250477296e-03
4.998432765486012e-01 -3.199937870675926e-03 3.199937870675902e-03
4.998432765485999e-01 -3.199937870675887e-03 -3.199937870675944e-03
5.000783114088007e-01 7.101842182159058e-18 4.370382934134332e-18
5.080333601378675e-01 -3.931215422214585e-03 -4.144615413627462e-17
4.999586292879468e-01 -3.534464957292313e-03 -1.451364198734718e-18
5.000206853560263e-01 -1.548286403932413e-03 -1.548286403932368e-03
5.000206853560267e-01 -1.548286403932405e-03 1.548286403932379e-03
5.039684643776572e-01 -3.728466077940151e-03 1.688704515414232e-03
5.039684643776566e-01 -3.728466077940173e-03 -1.688704515414291e-03
5.040912434477490e-01 -1.811402167338623e-03 2.121851931668473e-17
4.998432765485999e-01 -3.199937870675887e-03 -3.199937870675944e-03
4.998432765486001e-01 3.199937870675931e-03 -3.199937870675923e-03
5.000783114088007e-01 7.101842182159058e-18 4.370382934134332e-18
5.080333601378669e-01 -1.767090171613004e-18 -3.931215422214579e-03
4.999586292879463e-01 3.335556111261163e-17 -3.534464957292319e-03
5.000206853560265e-01 1.548286403932375e-03 -1.548286403932406e-03
5.000206853560263e-01 -1.548286403932413e-03 -1.548286403932368e-03
5.039684643776561e-01 -1.688704515414181e-03 -3.728466077940144e-03
5.039684643776564e-01 1.688704515414209e-03 -3.728466077940148e-03
5.040912434477489e-01 -1.600440082878599e-17 -1.811402167338640e-03
4.998432765486001e-01 3.199937870675902e-03 3.199937870675858e-03
4.998432765486012e-01 -3.199937870675926e-03 3.199937870675902e-03
5.000783114088007e-01 7.101842182159058e-18 4.370382934134332e-18
5.080333601378678e-01 3.019073295796503e-17 3.931215422214577e-03
4.999586292879470e-01 -3.238296153381909e-17 3.534464957292391e-03
5.000206853560267e-01 -1.548286403932405e-03 1.548286403932379e-03
5.000206853560266e-01 1.548286403932406e-03 1.548286403932345e-03
5.039684643776567e-01 1.688704515414205e-03 3.728466077940120e-03
5.039684643776573e-01 -1.688704515414246e-03 3.728466077940142e-03
5.040912434477492e-01 1.444750815397587e-17 1.811402167338639e-03
4.998432765485999e-01 -3.199937870675887e-03 -3.199937870675944e-03
5.159827899660870e-01 -3.802022313275794e-03 -3.802022313275917e-03
5.080333601378669e-01 -1.767090171613004e-18 -3.931215422214579e-03
5.080333601378675e-01 -3.931215422214585e-03 -4.144615413627462e-17
5.079163455304081e-01 -3.724604967464717e-03 -3.724604967464825e-03
5.120391032857502e-01 -1.876157398233041e-03 -3.893801756976838e-03
5.039684643776561e-01 -1.688704515414181e-03 -3.728466077940144e-03
5.039684643776566e-01 -3.728466077940173e-03 -1.688704515414291e-03
5.120391032857506e-01 -3.893801756976732e-03 -1.876157398233085e-03
5.080969558484577e-01 -1.860855842904787e-03 -1.860855842904833e-03
5.000783114088007e-01 7.101842182159058e-18 4.370382934134332e-18
5.080333601378675e-01 -3.931215422214585e-03 -4.144615413627462e-17
5.080333601378678e-01 3.019073295796503e-17 3.931215422214577e-03
4.998432765486012e-01 -3.199937870675926e-03 3.199937870675902e-03
5.040912434477490e-01 -1.811402167338623e-03 2.121851931668473e-17
5.080969558484582e-01 -1.860855842904782e-03 1.860855842904756e-03
5.040912434477492e-01 1.444750815397587e-17 1.811402167338639e-03
5.000206853560267e-01 -1.548286403932405e-03 1.548286403932379e-03
5.039684643776572e-01 -3.728466077940151e-03 1.688704515414232e-03
5.039684643776573e-01 -1.688704515414246e-03 3.728466077940142e-03
5.000783114088007e-01 7.101842182159058e-18 4.370382934134332e-18
5.080333601378669e-01 -1.767090171613004e-18 -3.931215422214579e-03
5.080333601378675e-01 -3.931215422214585e-03 -4.144615413627462e-17
4.998432765485999e-01 -3.199937870675887e-03 -3.199937870675944e-03
5.040912434477489e-01 -1.600440082878599e-17 -1.811402167338640e-03
5.080969558484577e-01 -1.860855842904787e-03 -1.860855842904833e-03
5.040912434477490e-01 -1.811402167338623e-03 2.121851931668473e-17
5.000206853560263e-01 -1.548286403932413e-03 -1.548286403932368e-03
5.039684643776561e-01 -1.688704515414181e-03 -3.728466077940144e-03
5.039684643776566e-01 -3.728466077940173e-03 -1.688704515414291e-03
5.000783114088007e-01 7.101842182159058e-18 4.370382934134332e-18
5.080333601378679e-01 3.931215422214548e-03 -5.755275594766517e-17
5.080333601378669e-01 -1.767090171613004e-18 -3.931215422214579e-03
4.998432765486001e-01 3.199937870675931e-03 -3.199937870675923e-03
5.040912434477494e-01 1.811402167338658e-03 -3.532762585067183e-17
5.080969558484578e-01 1.860855842904766e-03 -1.860855842904785e-03
5.040912434477489e-01 -1.600440082878599e-17 -1.811402167338640e-03
5.000206853560265e-01 1.548286403932375e-03 -1.548286403932406e-03
5.039684643776571e-01 3.728466077940123e-03 -1.688704515414204e-03
5.039684643776564e-01 1.688704515414209e-03 -3.728466077940148e-03
5.162346272116229e-01 3.230900874060546e-17 5.566526436012047e-18
5.080333601378675e-01 -3.931215422214585e-03 -4.144615413627462e-17
5.080333601378669e-01 -1.767090171613004e-18 -3.931215422214579e-03
5.159827899660870e-01 -3.802022313275794e-03 -3.802022313275917e-03
5.121647308773475e-01 -1.948019783338481e-03 -2.698886742685400e-17
5.080969558484577e-01 -1.860855842904787e-03 -1.860855842904833e-03
5.121647308773474e-01 -1.152869003410065e-18 -1.948019783338533e-03
5.161684558258809e-01 -1.913040725962679e-03 -1.913040725962766e-03
5.120391032857506e-01 -3.893801756976732e-03 -1.876157398233085e-03
5.120391032857502e-01 -1.876157398233041e-03 -3.893801756976838e-03
5.000783114088007e-01 7.101842182159058e-18 4.370382934134332e-18
5.080333601378675e-01 -3.931215422214585e-03 -4.144615413627462e-17
5.080333601378669e-01 -1.767090171613004e-18 -3.931215422214579e-03
5.081608143469184e-01 -4.727569392756549e-18 -5.386666118420671e-17
5.040912434477490e-01 -1.811402167338623e-03 2.121851931668473e-17
5.080969558484577e-01 -1.860855842904787e-03 -1.860855842904833e-03
5.040912434477489e-01 -1.600440082878599e-17 -1.811402167338640e-03
5.041210783005874e-01 2.727936387536995e-17 -2.754088882912255e-17
5.081290660296852e-01 -1.904246301696693e-03 1.118583728654248e-17
5.081290660296850e-01 -3.736136341426288e-17 -1.904246301696754e-03
        </DataArray>
        <DataArray type="Float64" Name="mixture_constituent_0_growth_scalar" format="ascii">
1.316455933986728e+00
1.316357289014322e+00
1.316357289014344e+00
1.316455933986713e+00
1.316455933986730e+00
1.316357289014333e+00
1.316357289014321e+00
1.316455933986717e+00
1.316357289014322e+00
1.316270363521166e+00
1.316270363521177e+00
1.316357289014344e+00
1.316357289014333e+00
1.316270363521186e+00
1.316270363521179e+00
1.316357289014321e+00
1.316270363521166e+00
1.316282083000410e+00
1.316282083000403e+00
1.316270363521177e+00
1.316270363521186e+00
1.316282083000438e+00
1.316282083000428e+00
1.316270363521179e+00
1.316560135637015e+00
1.316560135637021e+00
1.316984454933201e+00
1.316309791693731e+00
1.316631926480103e+00
1.316797112686006e+00
1.316797112686005e+00
1.316417388128174e+00
1.316417388128180e+00
1.316625005957661e+00
1.316560135637021e+00
1.316560135637032e+00
1.316984454933201e+00
1.316309791693727e+00
1.316631926480105e+00
1.316797112686012e+00
1.316797112686006e+00
1.316417388128176e+00
1.316417388128180e+00
1.316625005957650e+00
1.316571469391709e+00
1.316560135637015e+00
1.316984454933201e+00
1.316290308696950e+00
1.316631926480113e+00
1.316797112686005e+00
1.316797112686010e+00
1.316406890862774e+00
1.316417388128174e+00
1.316625005957651e+00
1.316560135637021e+00
1.316275613216819e+00
1.316309791693727e+00
1.316309791693731e+00
1.316306057164808e+00
1.316313912960447e+00
1.316417388128176e+00
1.316417388128180e+00
1.316313912960443e+00
1.316301540527386e+00
1.316984454933201e+00
1.316309791693731e+00
1.316290308696950e+00
1.316560135637015e+00
1.316625005957661e+00
1.316301540527390e+00
1.316625005957651e+00
1.316797112686005e+00
1.316417388128174e+00
1.316417388128174e+00
1.316984454933201e+00
1.316309791693727e+00
1.316309791693731e+00
1.316560135637021e+00
1.316625005957650e+00
1.316301540527386e+00
1.316625005957661e+00
1.316797112686006e+00
1.316417388128176e+00
1.316417388128180e+00
1.316984454933201e+00
1.316290308696935e+00
1.316309791693727e+00
1.316560135637032e+00
1.316625005957642e+00
1.316301540527382e+00
1.316625005957650e+00
1.316797112686012e+00
1.316417388128178e+00
1.316417388128180e+00
1.316305918447095e+00
1.316309791693731e+00
1.316309791693727e+00
1.316275613216819e+00
1.316324977130857e+00
1.316301540527386e+00
1.316324977130868e+00
1.316284526440873e+00
1.316313912960443e+00
1.316313912960447e+00
1.316984454933201e+00
1.316309791693731e+00
1.316309791693727e+00
1.316506325753363e+00
1.316625005957661e+00
1.316301540527386e+00
1.316625005957650e+00
1.316695898126694e+00
1.316388004028256e+00
1.316388004028256e+00
        </DataArray>
        <DataArray type="Float64" Name="mixture_constituent_0_lambda_r" format="ascii">
8.517562273222214e-01
8.517553773762401e-01
8.517553773762401e-01
8.517562273222203e-01
8.517562273222211e-01
8.517553773762400e-01
8.517553773762399e-01
8.517562273222206e-01
8.517553773762401e-01
8.517546284187885e-01
8.517546284187885e-01
8.517553773762401e-01
8.517553773762400e-01
8.517546284187885e-01
8.517546284187884e-01
8.517553773762399e-01
8.517546284187885e-01
8.517547294073179e-01
8.517547294073181e-01
8.517546284187885e-01
8.517546284187885e-01
8.517547294073178e-01
8.517547294073179e-01
8.517546284187884e-01
8.517571250991418e-01
8.517571250991419e-01
8.517607802477533e-01
8.517549682321596e-01
8.517577435319972e-01
8.517591664029194e-01
8.517591664029193e-01
8.517558952928402e-01
8.517558952928405e-01
8.517576837407568e-01
8.517571250991419e-01
8.517571250991420e-01
8.517607802477533e-01
8.517549682321595e-01
8.517577435319972e-01
8.517591664029193e-01
8.517591664029194e-01
8.517558952928402e-01
8.517558952928406e-01
8.517576837407568e-01
8.517572227203113e-01
8.517571250991418e-01
8.517607802477533e-01
8.517548003985932e-01
8.517577435319972e-01
8.517591664029193e-01
8.517591664029193e-01
8.517558048686455e-01
8.517558952928402e-01
8.517576837407569e-01
8.517571250991419e-01
8.517546736494204e-01
8.517549682321595e-01
8.517549682321596e-01
8.517549359450531e-01
8.517550036544937e-01
8.517558952928402e-01
8.517558952928405e-01
8.517550036544937e-01
8.517548971265867e-01
8.517607802477533e-01
8.517549682321596e-01
8.517548003985932e-01
8.517571250991418e-01
8.517576837407568e-01
8.517548971265869e-01
8.517576837407569e-01
8.517591664029193e-01
8.517558952928402e-01
8.517558952928402e-01
8.517607802477533e-01
8.517549682321595e-01
8.517549682321596e-01
8.517571250991419e-01
8.517576837407568e-01
8.517548971265867e-01
8.517576837407568e-01
8.517591664029194e-01
8.517558952928402e-01
8.517558952928405e-01
8.517607802477533e-01
8.517548003985931e-01
8.517549682321595e-01
8.517571250991420e-01
8.517576837407569e-01
8.517548971265867e-01
8.517576837407568e-01
8.517591664029193e-01
8.517558952928405e-01
8.517558952928406e-01
8.517549347703872e-01
8.517549682321596e-01
8.517549682321595e-01
8.517546736494204e-01
8.517550989937913e-01
8.517548971265867e-01
8.517550989937914e-01
8.517547504492583e-01
8.517550036544937e-01
8.517550036544937e-01
8.517607802477533e-01
8.517549682321596e-01
8.517549682321595e-01
8.517566614949503e-01
8.517576837407568e-01
8.517548971265867e-01
8.517576837407568e-01
8.517582945963691e-01
8.517556420588805e-01
8.517556420588807e-01
        </DataArray>
        <DataArray type="Float64" Name="mixture_constituent_0_sig" format="ascii">
1.157157335411079e+03
1.156981767825599e+03
1.156981767825523e+03
1.157157335411102e+03
1.157157335411065e+03
1.156981767825574e+03
1.156981767825604e+03
1.157157335411078e+03
1.156981767825599e+03
1.156827495246575e+03
1.156827495246573e+03
1.156981767825523e+03
1.156981767825574e+03
1.156827495246613e+03
1.156827495246585e+03
1.156981767825604e+03
1.156827495246575e+03
1.156848790253066e+03
1.156848790253089e+03
1.156827495246573e+03
1.156827495246613e+03
1.156848790253113e+03
1.156848790253076e+03
1.156827495246585e+03
1.157344091298548e+03
1.157344091298412e+03
1.158095115953532e+03
1.156896600873053e+03
1.157470403760110e+03
1.157763676625666e+03
1.157763676625752e+03
1.157089419112561e+03
1.157089419112503e+03
1.157456447016139e+03
1.157344091298412e+03
1.157344091298497e+03
1.158095115953532e+03
1.156896600873096e+03
1.157470403759969e+03
1.157763676625712e+03
1.157763676625666e+03
1.157089419112523e+03
1.157089419112525e+03
1.157456447016176e+03
1.157364549533859e+03
1.157344091298548e+03
1.158095115953532e+03
1.156861942046565e+03
1.157470403760125e+03
1.157763676625752e+03
1.157763676625682e+03
1.157071082579923e+03
1.157089419112538e+03
1.157456447016155e+03
1.157344091298412e+03
1.156836693745338e+03
1.156896600873096e+03
1.156896600873053e+03
1.156891844256488e+03
1.156904415788507e+03
1.157089419112523e+03
1.157089419112503e+03
1.156904415788491e+03
1.156881866069155e+03
1.158095115953532e+03
1.156896600873053e+03
1.156861942046565e+03
1.157344091298548e+03
1.157456447016139e+03
1.156881866069136e+03
1.157456447016155e+03
1.157763676625752e+03
1.157089419112561e+03
1.157089419112538e+03
1.158095115953532e+03
1.156896600873096e+03
1.156896600873053e+03
1.157344091298412e+03
1.157456447016176e+03
1.156881866069155e+03
1.157456447016139e+03
1.157763676625666e+03
1.157089419112523e+03
1.157089419112503e+03
1.158095115953532e+03
1.156861942046544e+03
1.156896600873096e+03
1.157344091298497e+03
1.157456447016146e+03
1.156881866069119e+03
1.157456447016176e+03
1.157763676625712e+03
1.157089419112542e+03
1.157089419112525e+03
1.156890058962587e+03
1.156896600873053e+03
1.156896600873096e+03
1.156836693745338e+03
1.156923851743261e+03
1.156881866069155e+03
1.156923851743257e+03
1.156852269912308e+03
1.156904415788491e+03
1.156904415788507e+03
1.158095115953532e+03
1.156896600873053e+03
1.156896600873096e+03
1.157244095949804e+03
1.157456447016139e+03
1.156881866069155e+03
1.157456447016176e+03
1.157581773980952e+03
1.157034602734411e+03
1.157034602734449e+03
        </DataArray>
        <DataArray type="Float64" Name="mixture_constituent_0_sig_h" format="ascii">
1.000000000000007e+03
1.000000000000006e+03
1.000000000000006e+03
1.000000000000006e+03
1.000000000000006e+03
1.000000000000006e+03
1.000000000000006e+03
1.000000000000006e+03
1.000000000000006e+03
1.000000000000006e+03
1.000000000000006e+03
1.000000000000006e+03
1.000000000000006e+03
1.000000000000006e+03
1.000000000000006e+03
1.000000000000006e+03
1.000000000000006e+03
1.000000000000006e+03
1.000000000000006e+03
1.000000000000006e+03
1.000000000000006e+03
1.000000000000006e+03
1.000000000000006e+03
1.000000000000006e+03
1.000000000000006e+03
1.000000000000006e+03
1.000000000000006e+03
1.000000000000006e+03
1.000000000000006e+03
1.000000000000006e+03
1.000000000000006e+03
1.000000000000006e+03
1.000000000000006e+03
1.000000000000006e+03
1.000000000000006e+03
1.000000000000006e+03
1.000000000000006e+03
1.000000000000006e+03
1.000000000000006e+03
1.000000000000006e+03
1.000000000000006e+03
1.000000000000006e+03
1.000000000000006e+03
1.000000000000006e+03
1.000000000000006e+03
1.000000000000006e+03
1.000000000000006e+03
1.000000000000006e+03
1.000000000000006e+03
1.000000000000006e+03
1.000000000000006e+03
1.000000000000006e+03
1.000000000000006e+03
1.000000000000006e+03
1.000000000000006e+03
1.000000000000006e+03
1.000000000000006e+03
1.000000000000006e+03
1.000000000000006e+03
1.000000000000006e+03
1.000000000000006e+03
1.000000000000006e+03
1.000000000000006e+03
1.000000000000006e+03
1.000000000000006e+03
1.000000000000006e+03
1.000000000000006e+03
1.000000000000006e+03
1.000000000000006e+03
1.000000000000006e+03
1.000000000000006e+03
1.000000000000006e+03
1.000000000000006e+03
1.000000000000006e+03
1.000000000000006e+03
1.000000000000006e+03
1.000000000000006e+03
1.000000000000006e+03
1.000000000000006e+03
1.000000000000006e+03
1.000000000000006e+03
1.000000000000006e+03
1.000000000000006e+03
1.000000000000006e+03
1.000000000000006e+03
1.000000000000006e+03
1.000000000000006e+03
1.000000000000006e+03
1.000000000000006e+03
1.000000000000006e+03
1.000000000000006e+03
1.000000000000006e+03
1.000000000000006e+03
1.000000000000006e+03
1.000000000000006e+03
1.000000000000006e+03
1.000000000000006e+03
1.000000000000006e+03
1.000000000000006e+03
1.000000000000006e+03
1.000000000000006e+03
1.000000000000006e+03
1.000000000000006e+03
1.000000000000006e+03
1.000000000000006e+03
1.000000000000006e+03
1.000000000000006e+03
1.000000000000006e+03
1.000000000000006e+03
1.000000000000006e+03
1.000000000000006e+03
1.000000000000006e+03
1.000000000000006e+03
1.000000000000006e+03
        </DataArray>
        <DataArray type="Float64" Name="mixture_constituent_1_elasthyper_prestretch" NumberOfComponents="9" format="ascii">
1.000000000000000e+00 1.000000000000000e+00 1.000000000000000e+00 0.000000000000000e+00 0.000000000000000e+00 0.000000000000000e+00 0.000000000000000e+00 0.000000000000000e+00 0.000000000000000e+00