<?xml version="1.0" ?> 
<!-- 
# vtk DataFile Version 3.0
-->
<VTKFile type="UnstructuredGrid" version="0.1" compressor="vtkZLibDataCompressor" byte_order="LittleEndian">
  <UnstructuredGrid>
    <FieldData>
      <DataArray type="Float64" Name="TIME" NumberOfTuples="1" format="ascii">
1.000000000000000e+01 
      </DataArray>
    </FieldData>

    <Piece NumberOfPoints="190" NumberOfCells="19" >
      <Points>
        <DataArray type="Float64" NumberOfComponents="3" format="ascii">
0.000000000000000e+00 2.500000000000000e+00 0.000000000000000e+00
0.000000000000000e+00 2.500000000000000e+00 1.000000000000000e+00
0.000000000000000e+00 2.000000000000000e+00 5.000000000000000e-01
5.000000000000000e-01 2.500000000000000e+00 5.000000000000000e-01
0.000000000000000e+00 2.500000000000000e+00 5.000000000000000e-01
0.000000000000000e+00 2.250000000000000e+00 7.500000000000000e-01
0.000000000000000e+00 2.250000000000000e+00 2.500000000000000e-01
2.500000000000000e-01 2.500000000000000e+00 2.500000000000000e-01
2.500000000000000e-01 2.500000000000000e+00 7.500000000000000e-01
2.500000000000000e-01 2.250000000000000e+00 5.000000000000000e-01
0.000000000000000e+00 1.500000000000000e+00 1.000000000000000e+00
1.000000000000000e+00 1.500000000000000e+00 1.000000000000000e+00
5.000000000000000e-01 1.500000000000000e+00 5.000000000000000e-01
5.000000000000000e-01 2.000000000000000e+00 1.000000000000000e+00
5.000000000000000e-01 1.500000000000000e+00 1.000000000000000e+00
7.500000000000000e-01 1.500000000000000e+00 7.500000000000000e-01
2.500000000000000e-01 1.500000000000000e+00 7.500000000000000e-01
2.500000000000000e-01 1.750000000000000e+00 1.000000000000000e+00
7.500000000000000e-01 1.750000000000000e+00 1.000000000000000e+00
5.000000000000000e-01 1.750000000000000e+00 7.500000000000000e-01
0.000000000000000e+00 2.500000000000000e+00 0.000000000000000e+00
1.000000000000000e+00 2.500000000000000e+00 0.000000000000000e+00
5.000000000000000e-01 2.500000000000000e+00 5.000000000000000e-01
5.000000000000000e-01 2.000000000000000e+00 0.000000000000000e+00
5.000000000000000e-01 2.500000000000000e+00 0.000000000000000e+00
7.500000000000000e-01 2.500000000000000e+00 2.500000000000000e-01
2.500000000000000e-01 2.500000000000000e+00 2.500000000000000e-01
2.500000000000000e-01 2.250000000000000e+00 0.000000000000000e+00
7.500000000000000e-01 2.250000000000000e+00 0.000000000000000e+00
5.000000000000000e-01 2.250000000000000e+00 2.500000000000000e-01
0.000000000000000e+00 2.500000000000000e+00 1.000000000000000e+00
1.000000000000000e+00 2.500000000000000e+00 1.000000000000000e+00
5.000000000000000e-01 2.000000000000000e+00 1.000000000000000e+00
5.000000000000000e-01 2.500000000000000e+00 5.000000000000000e-01
5.000000000000000e-01 2.500000000000000e+00 1.000000000000000e+00
7.500000000000000e-01 2.250000000000000e+00 1.000000000000000e+00
2.500000000000000e-01 2.250000000000000e+00 1.000000000000000e+00
2.500000000000000e-01 2.500000000000000e+00 7.500000000000000e-01
7.500000000000000e-01 2.500000000000000e+00 7.500000000000000e-01
5.000000000000000e-01 2.250000000000000e+00 7.500000000000000e-01
1.000000000000000e+00 1.500000000000000e+00 1.000000000000000e+00
1.000000000000000e+00 1.500000000000000e+00 0.000000000000000e+00
5.000000000000000e-01 1.500000000000000e+00 5.000000000000000e-01
1.000000000000000e+00 2.000000000000000e+00 5.000000000000000e-01
1.000000000000000e+00 1.500000000000000e+00 5.000000000000000e-01
7.500000000000000e-01 1.500000000000000e+00 2.500000000000000e-01
7.500000000000000e-01 1.500000000000000e+00 7.500000000000000e-01
1.000000000000000e+00 1.750000000000000e+00 7.500000000000000e-01
1.000000000000000e+00 1.750000000000000e+00 2.500000000000000e-01
7.500000000000000e-01 1.750000000000000e+00 5.000000000000000e-01
1.000000000000000e+00 1.500000000000000e+00 0.000000000000000e+00
1.000000000000000e+00 2.500000000000000e+00 0.000000000000000e+00
5.000000000000000e-01 2.000000000000000e+00 0.000000000000000e+00
1.000000000000000e+00 2.000000000000000e+00 5.000000000000000e-01
1.000000000000000e+00 2.000000000000000e+00 0.000000000000000e+00
7.500000000000000e-01 2.250000000000000e+00 0.000000000000000e+00
7.500000000000000e-01 1.750000000000000e+00 0.000000000000000e+00
1.000000000000000e+00 1.750000000000000e+00 2.500000000000000e-01
1.000000000000000e+00 2.250000000000000e+00 2.500000000000000e-01
7.500000000000000e-01 2.000000000000000e+00 2.500000000000000e-01
1.000000000000000e+00 2.500000000000000e+00 0.000000000000000e+00
1.000000000000000e+00 2.500000000000000e+00 1.000000000000000e+00
5.000000000000000e-01 2.500000000000000e+00 5.000000000000000e-01
1.000000000000000e+00 2.000000000000000e+00 5.000000000000000e-01
1.000000000000000e+00 2.500000000000000e+00 5.000000000000000e-01
7.500000000000000e-01 2.500000000000000e+00 7.500000000000000e-01
7.500000000000000e-01 2.500000000000000e+00 2.500000000000000e-01
1.000000000000000e+00 2.250000000000000e+00 2.500000000000000e-01
1.000000000000000e+00 2.250000000000000e+00 7.500000000000000e-01
7.500000000000000e-01 2.250000000000000e+00 5.000000000000000e-01
1.000000000000000e+00 2.500000000000000e+00 1.000000000000000e+00
1.000000000000000e+00 1.500000000000000e+00 1.000000000000000e+00
5.000000000000000e-01 2.000000000000000e+00 1.000000000000000e+00
1.000000000000000e+00 2.000000000000000e+00 5.000000000000000e-01
1.000000000000000e+00 2.000000000000000e+00 1.000000000000000e+00
7.500000000000000e-01 1.750000000000000e+00 1.000000000000000e+00
7.500000000000000e-01 2.250000000000000e+00 1.000000000000000e+00
1.000000000000000e+00 2.250000000000000e+00 7.500000000000000e-01
1.000000000000000e+00 1.750000000000000e+00 7.500000000000000e-01
7.500000000000000e-01 2.000000000000000e+00 7.500000000000000e-01
0.000000000000000e+00 2.000000000000000e+00 5.000000000000000e-01
5.000000000000000e-01 2.000000000000000e+00 1.000000000000000e+00
5.000000000000000e-01 2.500000000000000e+00 5.000000000000000e-01
0.000000000000000e+00 2.500000000000000e+00 1.000000000000000e+00
2.500000000000000e-01 2.000000000000000e+00 7.500000000000000e-01
5.000000000000000e-01 2.250000000000000e+00 7.500000000000000e-01
2.500000000000000e-01 2.250000000000000e+00 5.000000000000000e-01
0.000000000000000e+00 2.250000000000000e+00 7.500000000000000e-01
2.500000000000000e-01 2.250000000000000e+00 1.000000000000000e+00
2.500000000000000e-01 2.500000000000000e+00 7.500000000000000e-01
1.000000000000000e+00 2.000000000000000e+00 5.000000000000000e-01
5.000000000000000e-01 2.000000000000000e+00 1.000000000000000e+00
5.000000000000000e-01 1.500000000000000e+00 5.000000000000000e-01
1.000000000000000e+00 1.500000000000000e+00 1.000000000000000e+00
7.500000000000000e-01 2.000000000000000e+00 7.500000000000000e-01
5.000000000000000e-01 1.750000000000000e+00 7.500000000000000e-01
7.500000000000000e-01 1.750000000000000e+00 5.000000000000000e-01
1.000000000000000e+00 1.750000000000000e+00 7.500000000000000e-01
7.500000000000000e-01 1.750000000000000e+00 1.000000000000000e+00
7.500000000000000e-01 1.500000000000000e+00 7.500000000000000e-01
1.000000000000000e+00 2.000000000000000e+00 5.000000000000000e-01
5.000000000000000e-01 2.000000000000000e+00 0.000000000000000e+00
5.000000000000000e-01 2.500000000000000e+00 5.000000000000000e-01
1.000000000000000e+00 2.500000000000000e+00 0.000000000000000e+00
7.500000000000000e-01 2.000000000000000e+00 2.500000000000000e-01
5.000000000000000e-01 2.250000000000000e+00 2.500000000000000e-01
7.500000000000000e-01 2.250000000000000e+00 5.000000000000000e-01
1.000000000000000e+00 2.250000000000000e+00 2.500000000000000e-01
7.500000000000000e-01 2.250000000000000e+00 0.000000000000000e+00
7.500000000000000e-01 2.500000000000000e+00 2.500000000000000e-01
1.000000000000000e+00 2.000000000000000e+00 5.000000000000000e-01
5.000000000000000e-01 2.500000000000000e+00 5.000000000000000e-01
5.000000000000000e-01 2.000000000000000e+00 1.000000000000000e+00
1.000000000000000e+00 2.500000000000000e+00 1.000000000000000e+00
7.500000000000000e-01 2.250000000000000e+00 5.000000000000000e-01
5.000000000000000e-01 2.250000000000000e+00 7.500000000000000e-01
7.500000000000000e-01 2.000000000000000e+00 7.500000000000000e-01
1.000000000000000e+00 2.250000000000000e+00 7.500000000000000e-01
7.500000000000000e-01 2.500000000000000e+00 7.500000000000000e-01
7.500000000000000e-01 2.250000000000000e+00 1.000000000000000e+00
0.000000000000000e+00 2.000000000000000e+00 5.000000000000000e-01
5.000000000000000e-01 2.000000000000000e+00 1.000000000000000e+00
5.000000000000000e-01 1.500000000000000e+00 5.000000000000000e-01
5.000000000000000e-01 2.000000000000000e+00 5.000000000000000e-01
2.500000000000000e-01 2.000000000000000e+00 7.500000000000000e-01
5.000000000000000e-01 1.750000000000000e+00 7.500000000000000e-01
2.500000000000000e-01 1.750000000000000e+00 5.000000000000000e-01
2.500000000000000e-01 2.000000000000000e+00 5.000000000000000e-01
5.000000000000000e-01 2.000000000000000e+00 7.500000000000000e-01
5.000000000000000e-01 1.750000000000000e+00 5.000000000000000e-01
0.000000000000000e+00 2.000000000000000e+00 5.000000000000000e-01
5.000000000000000e-01 2.000000000000000e+00 0.000000000000000e+00
5.000000000000000e-01 2.500000000000000e+00 5.000000000000000e-01
5.000000000000000e-01 2.000000000000000e+00 5.000000000000000e-01
2.500000000000000e-01 2.000000000000000e+00 2.500000000000000e-01
5.000000000000000e-01 2.250000000000000e+00 2.500000000000000e-01
2.500000000000000e-01 2.250000000000000e+00 5.000000000000000e-01
2.500000000000000e-01 2.000000000000000e+00 5.000000000000000e-01
5.000000000000000e-01 2.000000000000000e+00 2.500000000000000e-01
5.000000000000000e-01 2.250000000000000e+00 5.000000000000000e-01
0.000000000000000e+00 2.000000000000000e+00 5.000000000000000e-01
5.000000000000000e-01 2.500000000000000e+00 5.000000000000000e-01
5.000000000000000e-01 2.000000000000000e+00 1.000000000000000e+00
5.000000000000000e-01 2.000000000000000e+00 5.000000000000000e-01
2.500000000000000e-01 2.250000000000000e+00 5.000000000000000e-01
5.000000000000000e-01 2.250000000000000e+00 7.500000000000000e-01
2.500000000000000e-01 2.000000000000000e+00 7.500000000000000e-01
2.500000000000000e-01 2.000000000000000e+00 5.000000000000000e-01
5.000000000000000e-01 2.250000000000000e+00 5.000000000000000e-01
5.000000000000000e-01 2.000000000000000e+00 7.500000000000000e-01
1.000000000000000e+00 2.000000000000000e+00 5.000000000000000e-01
5.000000000000000e-01 1.500000000000000e+00 5.000000000000000e-01
5.000000000000000e-01 2.000000000000000e+00 1.000000000000000e+00
5.000000000000000e-01 2.000000000000000e+00 5.000000000000000e-01
7.500000000000000e-01 1.750000000000000e+00 5.000000000000000e-01
5.000000000000000e-01 1.750000000000000e+00 7.500000000000000e-01
7.500000000000000e-01 2.000000000000000e+00 7.500000000000000e-01
7.500000000000000e-01 2.000000000000000e+00 5.000000000000000e-01
5.000000000000000e-01 1.750000000000000e+00 5.000000000000000e-01
5.000000000000000e-01 2.000000000000000e+00 7.500000000000000e-01
1.000000000000000e+00 2.000000000000000e+00 5.000000000000000e-01
5.000000000000000e-01 2.000000000000000e+00 0.000000000000000e+00
5.000000000000000e-01 1.500000000000000e+00 5.000000000000000e-01
5.000000000000000e-01 2.000000000000000e+00 5.000000000000000e-01
7.500000000000000e-01 2.000000000000000e+00 2.500000000000000e-01
5.000000000000000e-01 1.750000000000000e+00 2.500000000000000e-01
7.500000000000000e-01 1.750000000000000e+00 5.000000000000000e-01
7.500000000000000e-01 2.000000000000000e+00 5.000000000000000e-01
5.000000000000000e-01 2.000000000000000e+00 2.500000000000000e-01
5.000000000000000e-01 1.750000000000000e+00 5.000000000000000e-01
1.000000000000000e+00 2.000000000000000e+00 5.000000000000000e-01
5.000000000000000e-01 2.500000000000000e+00 5.000000000000000e-01
5.000000000000000e-01 2.000000000000000e+00 0.000000000000000e+00
5.000000000000000e-01 2.000000000000000e+00 5.000000000000000e-01
7.500000000000000e-01 2.250000000000000e+00 5.000000000000000e-01
5.000000000000000e-01 2.250000000000000e+00 2.500000000000000e-01
7.500000000000000e-01 2.000000000000000e+00 2.500000000000000e-01
7.500000000000000e-01 2.000000000000000e+00 5.000000000000000e-01
5.000000000000000e-01 2.250000000000000e+00 5.000000000000000e-01
5.000000000000000e-01 2.000000000000000e+00 2.500000000000000e-01
1.000000000000000e+00 2.000000000000000e+00 5.000000000000000e-01
5.000000000000000e-01 2.000000000000000e+00 1.000000000000000e+00
5.000000000000000e-01 2.500000000000000e+00 5.000000000000000e-01
5.000000000000000e-01 2.000000000000000e+00 5.000000000000000e-01
7.500000000000000e-01 2.000000000000000e+00 7.500000000000000e-01
5.000000000000000e-01 2.250000000000000e+00 7.500000000000000e-01
7.500000000000000e-01 2.250000000000000e+00 5.000000000000000e-01
7.500000000000000e-01 2.000000000000000e+00 5.000000000000000e-01
5.000000000000000e-01 2.000000000000000e+00 7.500000000000000e-01
5.000000000000000e-01 2.250000000000000e+00 5.000000000000000e-01
        </DataArray>
      </Points>

      <Cells>
        <DataArray type="Int32" Name="connectivity" format="ascii">
0 1 2 3 4 5 6 7 8 9 10 11 12 13 14 15 16 17 18 19 20 21 22 23 24 25 26 27 28 29 30 31 32 33 34 35 36 37 38 39 40 41 42 43 44 45 46 47 48 49 50 51 52 53 54 55 56 57 58 59 60 61 62 63 64 65 66 67 68 69 70 71 72 73 74 75 76 77 78 79 80 81 82 83 84 85 86 87 88 89 90 91 92 93 94 95 96 97 98 99 100 101 102 103 104 105 106 107 108 109 110 111 112 113 114 115 116 117 118 119 120 121 122 123 124 125 126 127 128 129 130 131 132 133 134 135 136 137 138 139 140 141 142 143 144 145 146 147 148 149 150 151 152 153 154 155 156 157 158 159 160 161 162 163 164 165 166 167 168 169 170 171 172 173 174 175 176 177 178 179 180 181 182 183 184 185 186 187 188 189 
        </DataArray>
        <DataArray type="Int32" Name="offsets" format="ascii">
10 20 30 40 50 60 70 80 90 100 110 120 130 140 150 160 170 180 190 
        </DataArray>
        <DataArray type="UInt8" Name="types" format="ascii">
24 24 24 24 24 24 24 24 24 24 24 24 24 24 24 24 24 24 24 
        </DataArray>
      </Cells>

  <PointData>
        <DataArray type="Float64" Name="current_reference_density" format="ascii">
1.031653620535601e+00
1.031656013563702e+00
1.031697168791750e+00
1.031630979169373e+00
1.031663192648011e+00
1.031679711268601e+00
1.031678760294519e+00
1.031641738812818e+00
1.031641738812817e+00
1.031662500595764e+00
1.031653620535599e+00
1.031627561321682e+00
1.031631353195819e+00
1.031630979169373e+00
1.031630605716480e+00
1.031631391296045e+00
1.031639663406105e+00
1.031641738812818e+00
1.031631391296045e+00
1.031630154052739e+00
1.031653620535601e+00
1.031627561321681e+00
1.031630979169373e+00
1.031631353195819e+00
1.031630605716481e+00
1.031631391296044e+00
1.031641738812818e+00
1.031639663406106e+00
1.031631391296044e+00
1.031630154052738e+00
1.031656013563702e+00
1.031627561321681e+00
1.031630979169373e+00
1.031630979169373e+00
1.031630605716481e+00
1.031631391296044e+00
1.031641738812818e+00
1.031641738812817e+00
1.031631391296045e+00
1.031630154052739e+00
1.031627561321682e+00
1.031633882430355e+00
1.031631353195819e+00
1.031629004895677e+00
1.031634431450132e+00
1.031636171671525e+00
1.031631391296045e+00
1.031628452644086e+00
1.031628452644087e+00
1.031632497713086e+00
1.031633882430355e+00
1.031627561321681e+00
1.031631353195819e+00
1.031629004895677e+00
1.031634431450133e+00
1.031631391296044e+00
1.031636171671526e+00
1.031628452644087e+00
1.031628452644086e+00
1.031632497713087e+00
1.031627561321681e+00
1.031627561321681e+00
1.031630979169373e+00
1.031629004895677e+00
1.031634431450131e+00
1.031631391296045e+00
1.031631391296044e+00
1.031628452644086e+00
1.031628452644086e+00
1.031632497713087e+00
1.031627561321681e+00
1.031627561321682e+00
1.031630979169373e+00
1.031629004895677e+00
1.031634431450131e+00
1.031631391296045e+00
1.031631391296044e+00
1.031628452644086e+00
1.031628452644086e+00
1.031632497713086e+00
1.031697168791750e+00
1.031630979169373e+00
1.031630979169373e+00
1.031656013563702e+00
1.031662500595765e+00
1.031630154052739e+00
1.031662500595764e+00
1.031679711268601e+00
1.031641738812818e+00
1.031641738812817e+00
1.031629004895677e+00
1.031630979169373e+00
1.031631353195819e+00
1.031627561321682e+00
1.031632497713086e+00
1.031630154052739e+00
1.031632497713086e+00
1.031628452644086e+00
1.031631391296045e+00
1.031631391296045e+00
1.031629004895677e+00
1.031631353195819e+00
1.031630979169373e+00
1.031627561321681e+00
1.031632497713087e+00
1.031630154052738e+00
1.031632497713087e+00
1.031628452644086e+00
1.031631391296044e+00
1.031631391296044e+00
1.031629004895677e+00
1.031630979169373e+00
1.031630979169373e+00
1.031627561321681e+00
1.031632497713087e+00
1.031630154052739e+00
1.031632497713086e+00
1.031628452644086e+00
1.031631391296045e+00
1.031631391296044e+00
1.031697168791750e+00
1.031630979169373e+00
1.031631353195819e+00
1.031650631978901e+00
1.031662500595765e+00
1.031630154052739e+00
1.031660617462247e+00
1.031669589812669e+00
1.031638800402827e+00
1.031638800402826e+00
1.031697168791750e+00
1.031631353195819e+00
1.031630979169373e+00
1.031650631978901e+00
1.031660617462245e+00
1.031630154052738e+00
1.031662500595764e+00
1.031669589812669e+00
1.031638800402826e+00
1.031638800402826e+00
1.031697168791750e+00
1.031630979169373e+00
1.031630979169373e+00
1.031650631978901e+00
1.031662500595764e+00
1.031630154052739e+00
1.031662500595765e+00
1.031669589812669e+00
1.031638800402826e+00
1.031638800402827e+00
1.031629004895677e+00
1.031631353195819e+00
1.031630979169373e+00
1.031650631978901e+00
1.031632497713086e+00
1.031630154052739e+00
1.031632497713086e+00
1.031642441610424e+00
1.031638800402826e+00
1.031638800402827e+00
1.031629004895677e+00
1.031631353195819e+00
1.031631353195819e+00
1.031650631978901e+00
1.031632497713087e+00
1.031629928532686e+00
1.031632497713086e+00
1.031642441610424e+00
1.031638800402826e+00
1.031638800402826e+00
1.031629004895677e+00
1.031630979169373e+00
1.031631353195819e+00
1.031650631978901e+00
1.031632497713087e+00
1.031630154052738e+00
1.031632497713087e+00
1.031642441610424e+00
1.031638800402826e+00
1.031638800402826e+00
1.031629004895677e+00
1.031630979169373e+00
1.031630979169373e+00
1.031650631978901e+00
1.031632497713086e+00
1.031630154052739e+00
1.031632497713087e+00
1.031642441610424e+00
1.031638800402827e+00
1.031638800402826e+00
        </DataArray>
        <DataArray type="Float64" Name="displacement" NumberOfComponents="3" format="ascii">
4.998432765486001e-01 3.199937870675931e-03 -3.199937870675923e-03
4.998432765486001e-01 3.199937870675902e-03 3.199937870675858e-03
5.000783114088007e-01 7.101842182159058e-18 4.370382934134332e-18
5.080333601378679e-01 3.931215422214548e-03 -5.755275594766517e-17
4.999586292879472e-01 3.534464957292388e-03 3.049055249843189e-17
5.000206853560266e-01 1.548286403932406e-03 1.548286403932345e-03
5.000206853560265e-01 1.548286403932375e-03 -1.548286403932406e-03
5.039684643776571e-01 3.728466077940123e-03 -1.688704515414204e-03
5.039684643776569e-01 3.728466077940157e-03 1.688704515414196e-03
5.040912434477494e-01 1.811402167338658e-03 -3.532762585067183e-17
4.998432765486012e-01 -3.199937870675926e-03 3.199937870675902e-03
5.159827899660887e-01 -3.802022313275757e-03 3.802022313275734e-03
5.080333601378675e-01 -3.931215422214585e-03 -4.144615413627462e-17
5.080333601378678e-01 3.019073295796503e-17 3.931215422214577e-03
5.079163455304095e-01 -3.724604967464760e-03 3.724604967464741e-03
5.120391032857513e-01 -3.893801756976758e-03 1.876157398233008e-03
5.039684643776572e-01 -3.728466077940151e-03 1.688704515414232e-03
5.039684643776573e-01 -1.688704515414246e-03 3.728466077940142e-03
5.120391032857514e-01 -1.876157398233004e-03 3.893801756976711e-03
5.080969558484582e-01 -1.860855842904782e-03 1.860855842904756e-03
4.998432765486001e-01 3.199937870675931e-03 -3.199937870675923e-03
5.159827899660876e-01 3.802022313275649e-03 -3.802022313275793e-03
5.080333601378679e-01 3.931215422214548e-03 -5.755275594766517e-17
5.080333601378669e-01 -1.767090171613004e-18 -3.931215422214579e-03
5.079163455304088e-01 3.724604967464717e-03 -3.724604967464769e-03
5.120391032857511e-01 3.893801756976635e-03 -1.876157398233125e-03
5.039684643776571e-01 3.728466077940123e-03 -1.688704515414204e-03
5.039684643776564e-01 1.688704515414209e-03 -3.728466077940148e-03
5.120391032857504e-01 1.876157398233026e-03 -3.893801756976692e-03
5.080969558484578e-01 1.860855842904766e-03 -1.860855842904785e-03
4.998432765486001e-01 3.199937870675902e-03 3.199937870675858e-03
5.159827899660874e-01 3.802022313275755e-03 3.802022313275831e-03
5.080333601378678e-01 3.019073295796503e-17 3.931215422214577e-03
5.080333601378679e-01 3.931215422214548e-03 -5.755275594766517e-17
5.079163455304083e-01 3.724604967464756e-03 3.724604967464780e-03
5.120391032857508e-01 1.876157398233043e-03 3.893801756976720e-03
5.039684643776567e-01 1.688704515414205e-03 3.728466077940120e-03
5.039684643776569e-01 3.728466077940157e-03 1.688704515414196e-03
5.120391032857510e-01 3.893801756976731e-03 1.876157398233053e-03
5.080969558484580e-01 1.860855842904768e-03 1.860855842904761e-03
5.159827899660887e-01 -3.802022313275757e-03 3.802022313275734e-03
5.159827899660870e-01 -3.802022313275794e-03 -3.802022313275917e-03
5.080333601378675e-01 -3.931215422214585e-03 -4.144615413627462e-17
5.162346272116229e-01 3.230900874060546e-17 5.566526436012047e-18
5.161057556153358e-01 -3.957411948472150e-03 -4.558012938348533e-17
5.120391032857506e-01 -3.893801756976732e-03 -1.876157398233085e-03
5.120391032857513e-01 -3.893801756976758e-03 1.876157398233008e-03
5.161684558258814e-01 -1.913040725962647e-03 1.913040725962661e-03
5.161684558258809e-01 -1.913040725962679e-03 -1.913040725962766e-03
5.121647308773475e-01 -1.948019783338481e-03 -2.698886742685400e-17
5.159827899660870e-01 -3.802022313275794e-03 -3.802022313275917e-03
5.159827899660876e-01 3.802022313275649e-03 -3.802022313275793e-03
5.080333601378669e-01 -1.767090171613004e-18 -3.931215422214579e-03
5.162346272116229e-01 3.230900874060546e-17 5.566526436012047e-18
5.161057556153351e-01 -2.449975402717979e-17 -3.957411948472218e-03
5.120391032857504e-01 1.876157398233026e-03 -3.893801756976692e-03
5.120391032857502e-01 -1.876157398233041e-03 -3.893801756976838e-03
5.161684558258809e-01 -1.913040725962679e-03 -1.913040725962766e-03
5.161684558258810e-01 1.913040725962647e-03 -1.913040725962688e-03
5.121647308773474e-01 -1.152869003410065e-18 -1.948019783338533e-03
5.159827899660876e-01 3.802022313275649e-03 -3.802022313275793e-03
5.159827899660874e-01 3.802022313275755e-03 3.802022313275831e-03
5.080333601378679e-01 3.931215422214548e-03 -5.755275594766517e-17
5.162346272116229e-01 3.230900874060546e-17 5.566526436012047e-18
5.161057556153359e-01 3.957411948472093e-03 -3.391857863312448e-17
5.120391032857510e-01 3.893801756976731e-03 1.876157398233053e-03
5.120391032857511e-01 3.893801756976635e-03 -1.876157398233125e-03
5.161684558258810e-01 1.913040725962647e-03 -1.913040725962688e-03
5.161684558258812e-01 1.913040725962681e-03 1.913040725962661e-03
5.121647308773477e-01 1.948019783338505e-03 -2.833636385646865e-17
5.159827899660874e-01 3.802022313275755e-03 3.802022313275831e-03
5.159827899660887e-01 -3.802022313275757e-03 3.802022313275734e-03
5.080333601378678e-01 3.019073295796503e-17 3.931215422214577e-03
5.162346272116229e-01 3.230900874060546e-17 5.566526436012047e-18
5.161057556153358e-01 2.763638626082620e-17 3.957411948472097e-03
5.120391032857514e-01 -1.876157398233004e-03 3.893801756976711e-03
5.120391032857508e-01 1.876157398233043e-03 3.893801756976720e-03
5.161684558258812e-01 1.913040725962681e-03 1.913040725962661e-03
5.161684558258814e-01 -1.913040725962647e-03 1.913040725962661e-03
5.121647308773478e-01 1.842577311350268e-17 1.948019783338477e-03
5.000783114088007e-01 7.101842182159058e-18 4.370382934134332e-18
5.080333601378678e-01 3.019073295796503e-17 3.931215422214577e-03
5.080333601378679e-01 3.931215422214548e-03 -5.755275594766517e-17
4.998432765486001e-01 3.199937870675902e-03 3.199937870675858e-03
5.040912434477492e-01 1.444750815397587e-17 1.811402167338639e-03
5.080969558484580e-01 1.860855842904768e-03 1.860855842904761e-03
5.040912434477494e-01 1.811402167338658e-03 -3.532762585067183e-17
5.000206853560266e-01 1.548286403932406e-03 1.548286403932345e-03
5.039684643776567e-01 1.688704515414205e-03 3.728466077940120e-03
5.039684643776569e-01 3.728466077940157e-03 1.688704515414196e-03
5.162346272116229e-01 3.230900874060546e-17 5.566526436012047e-18
5.080333601378678e-01 3.019073295796503e-17 3.931215422214577e-03
5.080333601378675e-01 -3.931215422214585e-03 -4.144615413627462e-17
5.159827899660887e-01 -3.802022313275757e-03 3.802022313275734e-03
5.121647308773478e-01 1.842577311350268e-17 1.948019783338477e-03
5.080969558484582e-01 -1.860855842904782e-03 1.860855842904756e-03
5.121647308773475e-01 -1.948019783338481e-03 -2.698886742685400e-17
5.161684558258814e-01 -1.913040725962647e-03 1.913040725962661e-03
5.120391032857514e-01 -1.876157398233004e-03 3.893801756976711e-03
5.120391032857513e-01 -3.893801756976758e-03 1.876157398233008e-03
5.162346272116229e-01 3.230900874060546e-17 5.566526436012047e-18
5.080333601378669e-01 -1.767090171613004e-18 -3.931215422214579e-03
5.080333601378679e-01 3.931215422214548e-03 -5.755275594766517e-17
5.159827899660876e-01 3.802022313275649e-03 -3.802022313275793e-03
5.121647308773474e-01 -1.152869003410065e-18 -1.948019783338533e-03
5.080969558484578e-01 1.860855842904766e-03 -1.860855842904785e-03
5.121647308773477e-01 1.948019783338505e-03 -2.833636385646865e-17
5.161684558258810e-01 1.913040725962647e-03 -1.913040725962688e-03
5.120391032857504e-01 1.876157398233026e-03 -3.893801756976692e-03
5.120391032857511e-01 3.893801756976635e-03 -1.876157398233125e-03
5.162346272116229e-01 3.230900874060546e-17 5.566526436012047e-18
5.080333601378679e-01 3.931215422214548e-03 -5.755275594766517e-17
5.080333601378678e-01 3.019073295796503e-17 3.931215422214577e-03
5.159827899660874e-01 3.802022313275755e-03 3.802022313275831e-03
5.121647308773477e-01 1.948019783338505e-03 -2.833636385646865e-17
5.080969558484580e-01 1.860855842904768e-03 1.860855842904761e-03
5.121647308773478e-01 1.842577311350268e-17 1.948019783338477e-03
5.161684558258812e-01 1.913040725962681e-03 1.913040725962661e-03
5.120391032857510e-01 3.893801756976731e-03 1.876157398233053e-03
5.120391032857508e-01 1.876157398233043e-03 3.893801756976720e-03
5.000783114088007e-01 7.101842182159058e-18 4.370382934134332e-18
5.080333601378678e-01 3.019073295796503e-17 3.931215422214577e-03
5.080333601378675e-01 -3.931215422214585e-03 -4.144615413627462e-17
5.081608143469184e-01 -4.727569392756549e-18 -5.386666118420671e-17
5.040912434477492e-01 1.444750815397587e-17 1.811402167338639e-03
5.080969558484582e-01 -1.860855842904782e-03 1.860855842904756e-03
5.040912434477490e-01 -1.811402167338623e-03 2.121851931668473e-17
5.041210783005874e-01 2.727936387536995e-17 -2.754088882912255e-17
5.081290660296853e-01 2.566854342889328e-17 1.904246301696689e-03
5.081290660296852e-01 -1.904246301696693e-03 1.118583728654248e-17
5.000783114088007e-01 7.101842182159058e-18 4.370382934134332e-18
5.080333601378669e-01 -1.767090171613004e-18 -3.931215422214579e-03
5.080333601378679e-01 3.931215422214548e-03 -5.755275594766517e-17
5.081608143469184e-01 -4.727569392756549e-18 -5.386666118420671e-17
5.040912434477489e-01 -1.600440082878599e-17 -1.811402167338640e-03
5.080969558484578e-01 1.860855842904766e-03 -1.860855842904785e-03
5.040912434477494e-01 1.811402167338658e-03 -3.532762585067183e-17
5.041210783005874e-01 2.727936387536995e-17 -2.754088882912255e-17
5.081290660296850e-01 -3.736136341426288e-17 -1.904246301696754e-03
5.081290660296852e-01 1.904246301696731e-03 -2.442733269866447e-17
5.000783114088007e-01 7.101842182159058e-18 4.370382934134332e-18
5.080333601378679e-01 3.931215422214548e-03 -5.755275594766517e-17
5.080333601378678e-01 3.019073295796503e-17 3.931215422214577e-03
5.081608143469184e-01 -4.727569392756549e-18 -5.386666118420671e-17
5.040912434477494e-01 1.811402167338658e-03 -3.532762585067183e-17
5.080969558484580e-01 1.860855842904768e-03 1.860855842904761e-03
5.040912434477492e-01 1.444750815397587e-17 1.811402167338639e-03
5.041210783005874e-01 2.727936387536995e-17 -2.754088882912255e-17
5.081290660296852e-01 1.904246301696731e-03 -2.442733269866447e-17
5.081290660296853e-01 2.566854342889328e-17 1.904246301696689e-03
5.162346272116229e-01 3.230900874060546e-17 5.566526436012047e-18
5.080333601378675e-01 -3.931215422214585e-03 -4.144615413627462e-17
5.080333601378678e-01 3.019073295796503e-17 3.931215422214577e-03
5.081608143469184e-01 -4.727569392756549e-18 -5.386666118420671e-17
5.121647308773475e-01 -1.948019783338481e-03 -2.698886742685400e-17
5.080969558484582e-01 -1.860855842904782e-03 1.860855842904756e-03
5.121647308773478e-01 1.842577311350268e-17 1.948019783338477e-03
5.121983727943582e-01 -1.850125637120500e-17 -1.214313894060027e-17
5.081290660296852e-01 -1.904246301696693e-03 1.118583728654248e-17
5.081290660296853e-01 2.566854342889328e-17 1.904246301696689e-03
5.162346272116229e-01 3.230900874060546e-17 5.566526436012047e-18
5.080333601378669e-01 -1.767090171613004e-18 -3.931215422214579e-03
5.080333601378675e-01 -3.931215422214585e-03 -4.144615413627462e-17
5.081608143469184e-01 -4.727569392756549e-18 -5.386666118420671e-17
5.121647308773474e-01 -1.152869003410065e-18 -1.948019783338533e-03
5.080969558484577e-01 -1.860855842904787e-03 -1.860855842904833e-03
5.121647308773475e-01 -1.948019783338481e-03 -2.698886742685400e-17
5.121983727943582e-01 -1.850125637120500e-17 -1.214313894060027e-17
5.081290660296850e-01 -3.736136341426288e-17 -1.904246301696754e-03
5.081290660296852e-01 -1.904246301696693e-03 1.118583728654248e-17
5.162346272116229e-01 3.230900874060546e-17 5.566526436012047e-18