<?xml version="1.0" ?> 
<!-- 
# vtk DataFile Version 3.0
-->
<VTKFile type="UnstructuredGrid" version="0.1" compressor="vtkZLibDataCompressor" byte_order="LittleEndian">
  <UnstructuredGrid>
    <FieldData>
      <DataArray type="Float64" Name="TIME" NumberOfTuples="1" format="ascii">
6.999999999999991e+00 
      </DataArray>
    </FieldData>

    <Piece NumberOfPoints="84" NumberOfCells="10" >
      <Points>
        <DataArray type="Float64" NumberOfComponents="3" format="ascii">
2.000000000000000e+00 0.000000000000000e+00 0.000000000000000e+00
2.500000000000000e+00 0.000000000000000e+00 0.000000000000000e+00
2.500000000000000e+00 5.000000000000000e-01 0.000000000000000e+00
2.000000000000000e+00 5.000000000000000e-01 0.000000000000000e+00
2.000000000000000e+00 0.000000000000000e+00 5.000000000000000e-01
2.500000000000000e+00 0.000000000000000e+00 5.000000000000000e-01
2.500000000000000e+00 5.000000000000000e-01 5.000000000000000e-01
2.000000000000000e+00 5.000000000000000e-01 5.000000000000000e-01
2.500000000000000e+00 0.000000000000000e+00 0.000000000000000e+00
3.000000000000000e+00 0.000000000000000e+00 0.000000000000000e+00
3.000000000000000e+00 5.000000000000000e-01 0.000000000000000e+00
2.500000000000000e+00 5.000000000000000e-01 0.000000000000000e+00
2.500000000000000e+00 0.000000000000000e+00 5.000000000000000e-01
3.000000000000000e+00 0.000000000000000e+00 5.000000000000000e-01
3.000000000000000e+00 5.000000000000000e-01 5.000000000000000e-01
2.500000000000000e+00 5.000000000000000e-01 5.000000000000000e-01
2.500000000000000e+00 5.000000000000000e-01 0.000000000000000e+00
3.000000000000000e+00 5.000000000000000e-01 0.000000000000000e+00
3.000000000000000e+00 1.000000000000000e+00 0.000000000000000e+00
2.500000000000000e+00 1.000000000000000e+00 0.000000000000000e+00
2.500000000000000e+00 5.000000000000000e-01 5.000000000000000e-01
3.000000000000000e+00 5.000000000000000e-01 5.000000000000000e-01
3.000000000000000e+00 1.000000000000000e+00 5.000000000000000e-01
2.500000000000000e+00 1.000000000000000e+00 5.000000000000000e-01
2.000000000000000e+00 5.000000000000000e-01 0.000000000000000e+00
2.500000000000000e+00 5.000000000000000e-01 0.000000000000000e+00
2.500000000000000e+00 1.000000000000000e+00 0.000000000000000e+00
2.000000000000000e+00 1.000000000000000e+00 0.000000000000000e+00
2.000000000000000e+00 5.000000000000000e-01 5.000000000000000e-01
2.500000000000000e+00 5.000000000000000e-01 5.000000000000000e-01
2.500000000000000e+00 1.000000000000000e+00 5.000000000000000e-01
2.000000000000000e+00 1.000000000000000e+00 5.000000000000000e-01
2.000000000000000e+00 0.000000000000000e+00 5.000000000000000e-01
2.500000000000000e+00 0.000000000000000e+00 5.000000000000000e-01
2.500000000000000e+00 5.000000000000000e-01 5.000000000000000e-01
2.000000000000000e+00 5.000000000000000e-01 5.000000000000000e-01
2.000000000000000e+00 0.000000000000000e+00 1.000000000000000e+00
2.500000000000000e+00 0.000000000000000e+00 1.000000000000000e+00
2.500000000000000e+00 5.000000000000000e-01 1.000000000000000e+00
2.000000000000000e+00 5.000000000000000e-01 1.000000000000000e+00
2.500000000000000e+00 0.000000000000000e+00 5.000000000000000e-01
3.000000000000000e+00 0.000000000000000e+00 5.000000000000000e-01
3.000000000000000e+00 5.000000000000000e-01 5.000000000000000e-01
2.500000000000000e+00 5.000000000000000e-01 5.000000000000000e-01
2.500000000000000e+00 0.000000000000000e+00 1.000000000000000e+00
3.000000000000000e+00 0.000000000000000e+00 1.000000000000000e+00
3.000000000000000e+00 5.000000000000000e-01 1.000000000000000e+00
2.500000000000000e+00 5.000000000000000e-01 1.000000000000000e+00
2.500000000000000e+00 5.000000000000000e-01 5.000000000000000e-01
3.000000000000000e+00 5.000000000000000e-01 5.000000000000000e-01
3.000000000000000e+00 1.000000000000000e+00 5.000000000000000e-01
2.500000000000000e+00 1.000000000000000e+00 5.000000000000000e-01
2.500000000000000e+00 5.000000000000000e-01 1.000000000000000e+00
3.000000000000000e+00 5.000000000000000e-01 1.000000000000000e+00
3.000000000000000e+00 1.000000000000000e+00 1.000000000000000e+00
2.500000000000000e+00 1.000000000000000e+00 1.000000000000000e+00
2.000000000000000e+00 5.000000000000000e-01 5.000000000000000e-01
2.500000000000000e+00 5.000000000000000e-01 5.000000000000000e-01
2.500000000000000e+00 1.000000000000000e+00 5.000000000000000e-01
2.000000000000000e+00 1.000000000000000e+00 5.000000000000000e-01
2.000000000000000e+00 5.000000000000000e-01 1.000000000000000e+00
2.500000000000000e+00 5.000000000000000e-01 1.000000000000000e+00
2.500000000000000e+00 1.000000000000000e+00 1.000000000000000e+00
2.000000000000000e+00 1.000000000000000e+00 1.000000000000000e+00
5.000000000000000e+00 1.000000000000000e+00 0.000000000000000e+00
4.000000000000000e+00 1.000000000000000e+00 0.000000000000000e+00
4.000000000000000e+00 0.000000000000000e+00 0.000000000000000e+00
4.000000000000000e+00 1.000000000000000e+00 1.000000000000000e+00
4.500000000000000e+00 1.000000000000000e+00 0.000000000000000e+00
4.000000000000000e+00 5.000000000000000e-01 0.000000000000000e+00
4.500000000000000e+00 5.000000000000000e-01 0.000000000000000e+00
4.500000000000000e+00 1.000000000000000e+00 5.000000000000000e-01
4.000000000000000e+00 1.000000000000000e+00 5.000000000000000e-01
4.000000000000000e+00 5.000000000000000e-01 5.000000000000000e-01
5.000000000000000e+00 1.000000000000000e+00 0.000000000000000e+00
4.000000000000000e+00 1.000000000000000e+00 1.000000000000000e+00
5.000000000000000e+00 0.000000000000000e+00 1.000000000000000e+00
5.000000000000000e+00 1.000000000000000e+00 1.000000000000000e+00
4.500000000000000e+00 1.000000000000000e+00 5.000000000000000e-01
4.500000000000000e+00 5.000000000000000e-01 1.000000000000000e+00
5.000000000000000e+00 5.000000000000000e-01 5.000000000000000e-01
5.000000000000000e+00 1.000000000000000e+00 5.000000000000000e-01
4.500000000000000e+00 1.000000000000000e+00 1.000000000000000e+00
5.000000000000000e+00 5.000000000000000e-01 1.000000000000000e+00
        </DataArray>
      </Points>

      <Cells>
        <DataArray type="Int32" Name="connectivity" format="ascii">
0 1 2 3 4 5 6 7 8 9 10 11 12 13 14 15 16 17 18 19 20 21 22 23 24 25 26 27 28 29 30 31 32 33 34 35 36 37 38 39 40 41 42 43 44 45 46 47 48 49 50 51 52 53 54 55 56 57 58 59 60 61 62 63 64 65 66 67 68 69 70 71 72 73 74 75 76 77 78 79 80 81 82 83 
        </DataArray>
        <DataArray type="Int32" Name="offsets" format="ascii">
8 16 24 32 40 48 56 64 74 84 
        </DataArray>
        <DataArray type="UInt8" Name="types" format="ascii">
12 12 12 12 12 12 12 12 24 24 
        </DataArray>
      </Cells>

  <PointData>
        <DataArray type="Float64" Name="displacement" NumberOfComponents="3" format="ascii">
-9.577373166648798e-02 -9.577373166648809e-02 -1.502251245414348e-01
-7.287758894232198e-02 -7.293502751073765e-02 -1.001512784828814e-01
-5.001565363678241e-02 -5.001565363678247e-02 -5.002758073930989e-02
-7.293502751073772e-02 -7.287758894232194e-02 -1.001512784828814e-01
-1.461933026402644e-01 -1.461933026402646e-01 -1.047564901894674e-01
-1.232655373419868e-01 -1.233111500477303e-01 -5.454650846136220e-02
-1.003679354740387e-01 -1.003679354740388e-01 -4.306259563441359e-03
-1.233111500477302e-01 -1.232655373419869e-01 -5.454650846136202e-02
-7.287758894232198e-02 -7.293502751073765e-02 -1.001512784828814e-01
-4.996867128106473e-02 -5.004143199140147e-02 -5.002106415142091e-02
-2.708281744055393e-02 -2.710455281677704e-02 1.512694845660328e-04
-5.001565363678241e-02 -5.001565363678247e-02 -5.002758073930989e-02
-1.232655373419868e-01 -1.233111500477303e-01 -5.454650846136220e-02
-1.003397250836026e-01 -1.004038175458419e-01 -4.315964146181625e-03
-7.742606786808057e-02 -7.745098232137872e-02 4.595324982317938e-02
-1.003679354740387e-01 -1.003679354740388e-01 -4.306259563441359e-03
-5.001565363678241e-02 -5.001565363678247e-02 -5.002758073930989e-02
-2.708281744055393e-02 -2.710455281677704e-02 1.512694845660328e-04
-4.153577093135102e-03 -4.153577093135073e-03 5.037761179478162e-02
-2.710455281677707e-02 -2.708281744055385e-02 1.512694845661555e-04
-1.003679354740387e-01 -1.003679354740388e-01 -4.306259563441359e-03
-7.742606786808057e-02 -7.745098232137872e-02 4.595324982317938e-02
-5.449892345502506e-02 -5.449892345502513e-02 9.624048787683755e-02
-7.745098232137856e-02 -7.742606786808069e-02 4.595324982317956e-02
-7.293502751073772e-02 -7.287758894232194e-02 -1.001512784828814e-01
-5.001565363678241e-02 -5.001565363678247e-02 -5.002758073930989e-02
-2.710455281677707e-02 -2.708281744055385e-02 1.512694845661555e-04
-5.004143199140132e-02 -4.996867128106472e-02 -5.002106415142071e-02
-1.233111500477302e-01 -1.232655373419869e-01 -5.454650846136202e-02
-1.003679354740387e-01 -1.003679354740388e-01 -4.306259563441359e-03
-7.745098232137856e-02 -7.742606786808069e-02 4.595324982317956e-02
-1.004038175458419e-01 -1.003397250836028e-01 -4.315964146181311e-03
-1.461933026402644e-01 -1.461933026402646e-01 -1.047564901894674e-01
-1.232655373419868e-01 -1.233111500477303e-01 -5.454650846136220e-02
-1.003679354740387e-01 -1.003679354740388e-01 -4.306259563441359e-03
-1.233111500477302e-01 -1.232655373419869e-01 -5.454650846136202e-02
-1.966412930800492e-01 -1.966412930800495e-01 -5.901403291723357e-02
-1.736628345255471e-01 -1.737232000080540e-01 -8.762644869250893e-03
-1.507369885702978e-01 -1.507369885702980e-01 4.149925817377363e-02
-1.737232000080538e-01 -1.736628345255473e-01 -8.762644869250723e-03
-1.232655373419868e-01 -1.233111500477303e-01 -5.454650846136220e-02
-1.003397250836026e-01 -1.004038175458419e-01 -4.315964146181625e-03
-7.742606786808057e-02 -7.745098232137872e-02 4.595324982317938e-02
-1.003679354740387e-01 -1.003679354740388e-01 -4.306259563441359e-03
-1.736628345255471e-01 -1.737232000080540e-01 -8.762644869250893e-03
-1.507010167518732e-01 -1.508097130283800e-01 4.147340105348512e-02
-1.277668992185797e-01 -1.278216701380520e-01 9.174444536061276e-02
-1.507369885702978e-01 -1.507369885702980e-01 4.149925817377363e-02
-1.003679354740387e-01 -1.003679354740388e-01 -4.306259563441359e-03
-7.742606786808057e-02 -7.745098232137872e-02 4.595324982317938e-02
-5.449892345502506e-02 -5.449892345502513e-02 9.624048787683755e-02
-7.745098232137856e-02 -7.742606786808069e-02 4.595324982317956e-02
-1.507369885702978e-01 -1.507369885702980e-01 4.149925817377363e-02
-1.277668992185797e-01 -1.278216701380520e-01 9.174444536061276e-02
-1.048492483583654e-01 -1.048492483583653e-01 1.419974595371851e-01
-1.278216701380519e-01 -1.277668992185801e-01 9.174444536061285e-02
-1.233111500477302e-01 -1.232655373419869e-01 -5.454650846136202e-02
-1.003679354740387e-01 -1.003679354740388e-01 -4.306259563441359e-03
-7.745098232137856e-02 -7.742606786808069e-02 4.595324982317956e-02
-1.004038175458419e-01 -1.003397250836028e-01 -4.315964146181311e-03
-1.737232000080538e-01 -1.736628345255473e-01 -8.762644869250723e-03
-1.507369885702978e-01 -1.507369885702980e-01 4.149925817377363e-02
-1.278216701380519e-01 -1.277668992185801e-01 9.174444536061285e-02
-1.508097130283797e-01 -1.507010167518735e-01 4.147340105348526e-02
-4.188733503350766e-03 -4.188733503336882e-03 5.037095490137425e-02
-5.003293588304196e-02 -4.997613221408426e-02 -5.003831547933799e-02
-9.577248959234347e-02 -9.577248959235740e-02 -1.502608486001936e-01
-1.507934572133477e-01 -1.506914293046521e-01 4.146912462273497e-02
-2.710906569896990e-02 -2.709619277225459e-02 1.703181917189718e-04
-7.291522765736858e-02 -7.287402865324624e-02 -1.001650456746736e-01
-5.000274260908251e-02 -5.000274260908254e-02 -5.000527251704251e-02
-7.744553123762847e-02 -7.742110378803595e-02 4.592961047603231e-02
-1.004038420199229e-01 -1.003207914223761e-01 -4.337733588311216e-03
-1.233116761549886e-01 -1.232555675123834e-01 -5.452869901507230e-02
-4.188733503350766e-03 -4.188733503336882e-03 5.037095490137425e-02
-1.507934572133477e-01 -1.506914293046521e-01 4.146912462273497e-02
-1.506914293046558e-01 -1.507934572133350e-01 4.146912462273105e-02
-1.048400095159041e-01 -1.048400095158820e-01 1.420147458277489e-01
-7.744553123762847e-02 -7.742110378803595e-02 4.592961047603231e-02
-1.507407465125515e-01 -1.507407465125433e-01 4.149365219927532e-02
-7.742110378804483e-02 -7.744553123761519e-02 4.592961047603038e-02
-5.449138536565949e-02 -5.449138536564135e-02 9.620693860758346e-02
-1.278187614928410e-01 -1.277734013999201e-01 9.173829937784532e-02
-1.277734013999330e-01 -1.278187614928238e-01 9.173829937784321e-02
        </DataArray>
        <DataArray type="Float64" Name="nodal_2PK_stresses_xyz" NumberOfComponents="6" format="ascii">
-5.009448285158279e-01 -5.009448285121256e-01 3.015090043838592e+00 -3.377008907151853e-01 4.038509652879599e-01 4.038509652887842e-01
-2.966421200055604e-01 -3.295493853126069e-01 1.868621681678042e+00 -3.003834694877691e-01 4.214056815029402e-01 5.311370589690256e-01
-1.453918982364374e-01 -1.453918982376359e-01 8.000678100546597e-01 -2.542798123139648e-01 5.274980907095217e-01 5.274980907110369e-01
-3.295493853119569e-01 -2.966421200066316e-01 1.868621681676743e+00 -3.003834694867361e-01 5.311370589670521e-01 4.214056815034106e-01
-2.503240327811818e-01 -2.503240327862475e-01 2.159077225216276e+00 -2.176510468545774e-02 1.408444863955986e-01 1.408444863955857e-01
-9.557815993301526e-02 -1.148850644966711e-01 1.358554891221182e+00 -5.718077896867433e-03 1.408671562016312e-01 2.259850815732871e-01
1.967087574697220e-02 1.967087574687323e-02 6.366570074048642e-01 1.914380407453905e-02 2.046515646137957e-01 2.046515646124777e-01
-1.148850644984413e-01 -9.557815993032150e-02 1.358554891222324e+00 -5.718077897345968e-03 2.259850815743722e-01 1.408671562009962e-01
-2.966421200055604e-01 -3.295493853126069e-01 1.868621681678042e+00 -3.003834694877691e-01 4.214056815029402e-01 5.311370589690256e-01
-1.718660322935849e-01 -2.201160965528690e-01 8.623774998881246e-01 -2.706462117614461e-01 4.816159957875449e-01 5.811536740185834e-01
-4.103467228511795e-02 -5.627035558499155e-02 -1.274991073266261e-01 -2.156828469643398e-01 5.664993506904004e-01 5.561507604722793e-01
-1.453918982364374e-01 -1.453918982376359e-01 8.000678100546597e-01 -2.542798123139648e-01 5.274980907095217e-01 5.274980907110369e-01
-9.557815993301526e-02 -1.148850644966711e-01 1.358554891221182e+00 -5.718077896867433e-03 1.408671562016312e-01 2.259850815732871e-01
-2.053150186829877e-02 -4.148676229393747e-02 6.990187041654172e-01 2.726423013391432e-03 1.837907721749744e-01 2.334910220561018e-01
7.427861487345577e-02 7.272363751111183e-02 5.636572136859981e-02 3.645971799550760e-02 2.262225225586827e-01 1.907044291520156e-01
1.967087574697220e-02 1.967087574687323e-02 6.366570074048642e-01 1.914380407453905e-02 2.046515646137957e-01 2.046515646124777e-01
-1.453918982364374e-01 -1.453918982376359e-01 8.000678100546597e-01 -2.542798123139648e-01 5.274980907095217e-01 5.274980907110369e-01
-4.103467228511795e-02 -5.627035558499155e-02 -1.274991073266261e-01 -2.156828469643398e-01 5.664993506904004e-01 5.561507604722793e-01
2.751666937900845e-02 2.751666937650800e-02 -9.756867332230952e-01 -1.681613766472607e-01 5.737622580766397e-01 5.737622580753883e-01
-5.627035558810591e-02 -4.103467228393091e-02 -1.274991073274497e-01 -2.156828469645705e-01 5.561507604717547e-01 5.664993506898970e-01
1.967087574697220e-02 1.967087574687323e-02 6.366570074048642e-01 1.914380407453905e-02 2.046515646137957e-01 2.046515646124777e-01
7.427861487345577e-02 7.272363751111183e-02 5.636572136859981e-02 3.645971799550760e-02 2.262225225586827e-01 1.907044291520156e-01
1.067521690498634e-01 1.067521690537438e-01 -4.441222586363313e-01 6.269486680386435e-02 1.908156940023506e-01 1.908156940023661e-01
7.272363751315089e-02 7.427861487160894e-02 5.636572136964074e-02 3.645971799529760e-02 1.907044291511232e-01 2.262225225586670e-01
-3.295493853119569e-01 -2.966421200066316e-01 1.868621681676743e+00 -3.003834694867361e-01 5.311370589670521e-01 4.214056815034106e-01
-1.453918982364374e-01 -1.453918982376359e-01 8.000678100546597e-01 -2.542798123139648e-01 5.274980907095217e-01 5.274980907110369e-01
-5.627035558810591e-02 -4.103467228393091e-02 -1.274991073274497e-01 -2.156828469645705e-01 5.561507604717547e-01 5.664993506898970e-01
-2.201160965506976e-01 -1.718660322928596e-01 8.623774998852713e-01 -2.706462117630591e-01 5.811536740200982e-01 4.816159957869475e-01
-1.148850644984413e-01 -9.557815993032150e-02 1.358554891222324e+00 -5.718077897345968e-03 2.259850815743722e-01 1.408671562009962e-01
1.967087574697220e-02 1.967087574687323e-02 6.366570074048642e-01 1.914380407453905e-02 2.046515646137957e-01 2.046515646124777e-01
7.272363751315089e-02 7.427861487160894e-02 5.636572136964074e-02 3.645971799529760e-02 1.907044291511232e-01 2.262225225586670e-01
-4.148676229399151e-02 -2.053150186928797e-02 6.990187041653428e-01 2.726423013965707e-03 2.334910220541666e-01 1.837907721760108e-01
-2.503240327811818e-01 -2.503240327862475e-01 2.159077225216276e+00 -2.176510468545774e-02 1.408444863955986e-01 1.408444863955857e-01
-9.557815993301526e-02 -1.148850644966711e-01 1.358554891221182e+00 -5.718077896867433e-03 1.408671562016312e-01 2.259850815732871e-01
1.967087574697220e-02 1.967087574687323e-02 6.366570074048642e-01 1.914380407453905e-02 2.046515646137957e-01 2.046515646124777e-01
-1.148850644984413e-01 -9.557815993032150e-02 1.358554891222324e+00 -5.718077897345968e-03 2.259850815743722e-01 1.408671562009962e-01
-1.300056320100958e-01 -1.300056320103730e-01 1.562745891620471e+00 3.915810535602796e-02 1.970471367908014e-01 1.970471367909936e-01
-2.484658015482104e-02 -3.090463100551469e-02 1.108730031961819e+00 3.348018582003802e-02 1.796728132477891e-01 2.402770471465167e-01
5.403896997509761e-02 5.403896997494043e-02 7.339912824790498e-01 3.668506587326782e-02 2.013375947863463e-01 2.013375947864373e-01
-3.090463100656148e-02 -2.484658015523641e-02 1.108730031961130e+00 3.348018581865525e-02 2.402770471480259e-01 1.796728132482901e-01
-9.557815993301526e-02 -1.148850644966711e-01 1.358554891221182e+00 -5.718077896867433e-03 1.408671562016312e-01 2.259850815732871e-01
-2.053150186829877e-02 -4.148676229393747e-02 6.990187041654172e-01 2.726423013391432e-03 1.837907721749744e-01 2.334910220561018e-01
7.427861487345577e-02 7.272363751111183e-02 5.636572136859981e-02 3.645971799550760e-02 2.262225225586827e-01 1.907044291520156e-01
1.967087574697220e-02 1.967087574687323e-02 6.366570074048642e-01 1.914380407453905e-02 2.046515646137957e-01 2.046515646124777e-01
-2.484658015482104e-02 -3.090463100551469e-02 1.108730031961819e+00 3.348018582003802e-02 1.796728132477891e-01 2.402770471465167e-01
4.692835533169799e-04 6.048193652993566e-03 7.964236785200505e-01 2.022846853731477e-02 2.053811581908666e-01 2.054954334622250e-01
5.891514527012490e-02 7.063167605112233e-02 5.014402314822430e-01 3.235598806042877e-02 2.055029003131329e-01 1.449671942886097e-01
5.403896997509761e-02 5.403896997494043e-02 7.339912824790498e-01 3.668506587326782e-02 2.013375947863463e-01 2.013375947864373e-01
1.967087574697220e-02 1.967087574687323e-02 6.366570074048642e-01 1.914380407453905e-02 2.046515646137957e-01 2.046515646124777e-01
7.427861487345577e-02 7.272363751111183e-02 5.636572136859981e-02 3.645971799550760e-02 2.262225225586827e-01 1.907044291520156e-01
1.067521690498634e-01 1.067521690537438e-01 -4.441222586363313e-01 6.269486680386435e-02 1.908156940023506e-01 1.908156940023661e-01
7.272363751315089e-02 7.427861487160894e-02 5.636572136964074e-02 3.645971799529760e-02 1.907044291511232e-01 2.262225225586670e-01
5.403896997509761e-02 5.403896997494043e-02 7.339912824790498e-01 3.668506587326782e-02 2.013375947863463e-01 2.013375947864373e-01
5.891514527012490e-02 7.063167605112233e-02 5.014402314822430e-01 3.235598806042877e-02 2.055029003131329e-01 1.449671942886097e-01
5.493894194205692e-02 5.493894194329893e-02 3.490592999398856e-01 3.698057819365953e-02 1.275559815999320e-01 1.275559816003999e-01
7.063167605231252e-02 5.891514527024417e-02 5.014402314795097e-01 3.235598806024209e-02 1.449671942877905e-01 2.055029003124364e-01
-1.148850644984413e-01 -9.557815993032150e-02 1.358554891222324e+00 -5.718077897345968e-03 2.259850815743722e-01 1.408671562009962e-01
1.967087574697220e-02 1.967087574687323e-02 6.366570074048642e-01 1.914380407453905e-02 2.046515646137957e-01 2.046515646124777e-01
7.272363751315089e-02 7.427861487160894e-02 5.636572136964074e-02 3.645971799529760e-02 1.907044291511232e-01 2.262225225586670e-01
-4.148676229399151e-02 -2.053150186928797e-02 6.990187041653428e-01 2.726423013965707e-03 2.334910220541666e-01 1.837907721760108e-01
-3.090463100656148e-02 -2.484658015523641e-02 1.108730031961130e+00 3.348018581865525e-02 2.402770471480259e-01 1.796728132482901e-01
5.403896997509761e-02 5.403896997494043e-02 7.339912824790498e-01 3.668506587326782e-02 2.013375947863463e-01 2.013375947864373e-01
7.063167605231252e-02 5.891514527024417e-02 5.014402314795097e-01 3.235598806024209e-02 1.449671942877905e-01 2.055029003124364e-01
6.048193654151240e-03 4.692835537498316e-04 7.964236785203376e-01 2.022846853869666e-02 2.054954334603254e-01 2.053811581921192e-01
-2.454923233549074e-01 -2.454923233544977e-01 -1.544404173486242e+00 -1.641371048986879e-01 3.021480999647845e-01 3.021480999650670e-01
-1.336346779945138e-01 -2.008145179369493e-01 7.703455705047622e-01 -1.660287169228773e-01 2.406431353378054e-01 2.434442145156940e-01
-1.651101326276527e-01 -1.651101326283254e-01 3.133443438547946e+00 -2.598738651250087e-01 2.414201221516242e-01 2.414201221515929e-01
1.229121025280946e-01 9.116726719516668e-02 7.252328720955945e-01 1.167163605207952e-01 3.077079771469988e-01 3.036817537454071e-01
-2.515268342178394e-01 -1.934702914509680e-01 -2.632848285856103e-01 -1.933064516065881e-01 2.477967311460261e-01 3.125877768250540e-01
-1.576717378654290e-01 -2.267379556403715e-01 1.810781922744679e+00 -2.162518826423794e-01 3.061006136275687e-01 2.457210310170661e-01
-2.527166252585743e-01 -2.527166252588285e-01 7.778075289383668e-01 -2.402967604081433e-01 3.187241013258783e-01 3.187241013258177e-01
-6.137272861553612e-02 -3.170380265335306e-02 -3.528215550847749e-01 -2.223419358314985e-02 2.636479988778914e-01 3.050012632816136e-01
2.968440597255252e-02 -1.196591980691175e-02 7.627364845836313e-01 7.434940103099214e-03 2.429994995596211e-01 2.468309570606880e-01
-2.873588102612797e-03 -1.472604820544430e-02 1.883937542417609e+00 -4.374035147216258e-02 2.753644815801248e-01 2.313682709405322e-01
-2.454923233549074e-01 -2.454923233544977e-01 -1.544404173486242e+00 -1.641371048986879e-01 3.021480999647845e-01 3.021480999650670e-01
1.229121025280946e-01 9.116726719516668e-02 7.252328720955945e-01 1.167163605207952e-01 3.077079771469988e-01 3.036817537454071e-01
9.116726719580684e-02 1.229121025292784e-01 7.252328720956782e-01 1.167163605212849e-01 3.036817537455287e-01 3.077079771471996e-01
1.154257315768124e-01 1.154257315761634e-01 4.739805791013658e-01 1.052061355688656e-02 1.496901880294921e-01 1.496901880285074e-01
-6.137272861553612e-02 -3.170380265335306e-02 -3.528215550847749e-01 -2.223419358314985e-02 2.636479988778914e-01 3.050012632816136e-01
8.107188510531743e-02 8.107188510512177e-02 7.152680299062020e-01 9.532228165162158e-02 3.249975600309657e-01 3.249975600305514e-01
-3.170380265314227e-02 -6.137272861428954e-02 -3.528215550842395e-01 -2.223419358271402e-02 3.050012632811747e-01 2.636479988784088e-01
5.882707789158774e-03 5.882707789526674e-03 -8.081829634836490e-01 1.408893009206006e-02 1.786678048974469e-01 1.786678048971451e-01
1.082682665701993e-01 4.485967840792991e-02 8.769211460945052e-01 -1.659612383150074e-02 2.230089241116276e-01 2.851649870278660e-01
4.485967840832464e-02 1.082682665698045e-01 8.769211460945052e-01 -1.659612383150113e-02 2.851649870286025e-01 2.230089241120698e-01
        </DataArray>
        <DataArray type="Float64" Name="nodal_GL_strains_xyz" NumberOfComponents="6" format="ascii">
-4.519511954773443e-04 -4.519511954755615e-04 1.309699179657737e-03 -1.685788722292553e-04 2.023010236432423e-04 2.023010236436551e-04
-2.725564024727892e-04 -2.890268784328642e-04 8.114854364477109e-04 -1.499827585310560e-04 2.109117921273730e-04 2.658841382068236e-04
-1.235408640916403e-04 -1.235408640921661e-04 3.495069999178217e-04 -1.269747945010533e-04 2.638524433102408e-04 2.638524433109990e-04
-2.890268784323244e-04 -2.725564024731759e-04 8.114854364472083e-04 -1.499827585305401e-04 2.658841382058355e-04 2.109117921276083e-04
-2.911358366419116e-04 -2.911358366444938e-04 9.155943323212436e-04 -1.083743349107123e-05 7.047771349826844e-05 7.047771349826234e-05
-1.626490215008654e-04 -1.722966692596133e-04 5.651974309284299e-04 -2.831252665977347e-06 7.049190024763733e-05 1.131013941134796e-04
-5.776706669179207e-05 -5.776706669176303e-05 2.508854344167762e-04 9.591883778886420e-06 1.023954529696836e-04 1.023954529690244e-04
-1.722966692607470e-04 -1.626490214998030e-04 5.651974309287520e-04 -2.831252666216534e-06 1.131013941140231e-04 7.049190024731937e-05
-2.725564024727892e-04 -2.890268784328642e-04 8.114854364477109e-04 -1.499827585310560e-04 2.109117921273730e-04 2.658841382068236e-04
-1.328730815596569e-04 -1.570435497765151e-04 3.845581701077291e-04 -1.351504757551375e-04 2.408749337706602e-04 2.906949842080267e-04
2.067867053702686e-06 -5.565968259856948e-06 -4.108193436938095e-05 -1.077015373891612e-04 2.831705486214058e-04 2.779896123529341e-04
-1.235408640916403e-04 -1.235408640921661e-04 3.495069999178217e-04 -1.269747945010533e-04 2.638524433102408e-04 2.638524433109990e-04
-1.626490215008654e-04 -1.722966692596133e-04 5.651974309284299e-04 -2.831252665977347e-06 7.049190024763733e-05 1.131013941134796e-04
-7.397637187547940e-05 -8.445372926881104e-05 2.859886710744244e-04 1.379737908977332e-06 9.195847074210333e-05 1.168193946796972e-04
1.680514985147471e-05 1.602880252753071e-05 7.886131589033783e-06 1.824428193658703e-05 1.131464163688063e-04 9.537899697205986e-05
-5.776706669179207e-05 -5.776706669176303e-05 2.508854344167762e-04 9.591883778886420e-06 1.023954529696836e-04 1.023954529690244e-04
-1.235408640916403e-04 -1.235408640921661e-04 3.495069999178217e-04 -1.269747945010533e-04 2.638524433102408e-04 2.638524433109990e-04
2.067867053702686e-06 -5.565968259856948e-06 -4.108193436938095e-05 -1.077015373891612e-04 2.831705486214058e-04 2.779896123529341e-04
1.058794211704522e-04 1.058794211692313e-04 -3.952356567017784e-04 -8.395774590933318e-05 2.866217264576227e-04 2.866217264569980e-04
-5.565968261060414e-06 2.067867054647561e-06 -4.108193436955564e-05 -1.077015373892767e-04 2.779896123526721e-04 2.831705486211532e-04
-5.776706669179207e-05 -5.776706669176303e-05 2.508854344167762e-04 9.591883778886420e-06 1.023954529696836e-04 1.023954529690244e-04
1.680514985147471e-05 1.602880252753071e-05 7.886131589033783e-06 1.824428193658703e-05 1.131464163688063e-04 9.537899697205986e-05
7.642175948437945e-05 7.642175948641333e-05 -1.987852574608506e-04 3.136298242297902e-05 9.539033787220385e-05 9.539033787221078e-05
1.602880252846557e-05 1.680514985027332e-05 7.886131589404743e-06 1.824428193648190e-05 9.537899697161340e-05 1.131464163687988e-04
-2.890268784323244e-04 -2.725564024731759e-04 8.114854364472083e-04 -1.499827585305401e-04 2.658841382058355e-04 2.109117921276083e-04
-1.235408640916403e-04 -1.235408640921661e-04 3.495069999178217e-04 -1.269747945010533e-04 2.638524433102408e-04 2.638524433109990e-04
-5.565968261060414e-06 2.067867054647561e-06 -4.108193436955564e-05 -1.077015373892767e-04 2.779896123526721e-04 2.831705486211532e-04
-1.570435497755029e-04 -1.328730815594117e-04 3.845581701063709e-04 -1.351504757559437e-04 2.906949842087837e-04 2.408749337703610e-04
-1.722966692607470e-04 -1.626490214998030e-04 5.651974309287520e-04 -2.831252666216534e-06 1.131013941140231e-04 7.049190024731937e-05
-5.776706669179207e-05 -5.776706669176303e-05 2.508854344167762e-04 9.591883778886420e-06 1.023954529696836e-04 1.023954529690244e-04
1.602880252846557e-05 1.680514985027332e-05 7.886131589404743e-06 1.824428193648190e-05 9.537899697161340e-05 1.131464163687988e-04
-8.445372926862110e-05 -7.397637187587876e-05 2.859886710744629e-04 1.379737909264428e-06 1.168193946787291e-04 9.195847074262175e-05
-2.911358366419116e-04 -2.911358366444938e-04 9.155943323212436e-04 -1.083743349107123e-05 7.047771349826844e-05 7.047771349826234e-05
-1.626490215008654e-04 -1.722966692596133e-04 5.651974309284299e-04 -2.831252665977347e-06 7.049190024763733e-05 1.131013941134796e-04
-5.776706669179207e-05 -5.776706669176303e-05 2.508854344167762e-04 9.591883778886420e-06 1.023954529696836e-04 1.023954529690244e-04
-1.722966692607470e-04 -1.626490214998030e-04 5.651974309287520e-04 -2.831252666216534e-06 1.131013941140231e-04 7.049190024731937e-05
-1.953515566479399e-04 -1.953515566478606e-04 6.520141931209828e-04 1.958170854805248e-05 9.864416893979466e-05 9.864416893989082e-05
-1.177522238325030e-04 -1.207920600325294e-04 4.495331923554410e-04 1.675378334401168e-05 8.991904087465511e-05 1.202457466967657e-04
-5.719936353709891e-05 -5.719936353727417e-05 2.829983036374381e-04 1.836012718549986e-05 1.007334651569768e-04 1.007334651570224e-04
-1.207920600327538e-04 -1.177522238324557e-04 4.495331923554289e-04 1.675378334332068e-05 1.202457466975205e-04 8.991904087490549e-05
-1.626490215008654e-04 -1.722966692596133e-04 5.651974309284299e-04 -2.831252665977347e-06 7.049190024763733e-05 1.131013941134796e-04
-7.397637187547940e-05 -8.445372926881104e-05 2.859886710744244e-04 1.379737908977332e-06 9.195847074210333e-05 1.168193946796972e-04
1.680514985147471e-05 1.602880252753071e-05 7.886131589033783e-06 1.824428193658703e-05 1.131464163688063e-04 9.537899697205986e-05
-5.776706669179207e-05 -5.776706669176303e-05 2.508854344167762e-04 9.591883778886420e-06 1.023954529696836e-04 1.023954529690244e-04