<?xml version="1.0" ?> 
<!-- 
# vtk DataFile Version 3.0
-->
<VTKFile type="UnstructuredGrid" version="0.1" compressor="vtkZLibDataCompressor" byte_order="LittleEndian">
  <UnstructuredGrid>
    <FieldData>
      <DataArray type="Float64" Name="TIME" NumberOfTuples="1" format="ascii">
6.999999999999991e+00 
      </DataArray>
    </FieldData>

    <Piece NumberOfPoints="94" NumberOfCells="11" >
      <Points>
        <DataArray type="Float64" NumberOfComponents="3" format="ascii">
0.000000000000000e+00 0.000000000000000e+00 0.000000000000000e+00
5.000000000000000e-01 0.000000000000000e+00 0.000000000000000e+00
5.000000000000000e-01 5.000000000000000e-01 0.000000000000000e+00
0.000000000000000e+00 5.000000000000000e-01 0.000000000000000e+00
0.000000000000000e+00 0.000000000000000e+00 5.000000000000000e-01
5.000000000000000e-01 0.000000000000000e+00 5.000000000000000e-01
5.000000000000000e-01 5.000000000000000e-01 5.000000000000000e-01
0.000000000000000e+00 5.000000000000000e-01 5.000000000000000e-01
5.000000000000000e-01 0.000000000000000e+00 0.000000000000000e+00
1.000000000000000e+00 0.000000000000000e+00 0.000000000000000e+00
1.000000000000000e+00 5.000000000000000e-01 0.000000000000000e+00
5.000000000000000e-01 5.000000000000000e-01 0.000000000000000e+00
5.000000000000000e-01 0.000000000000000e+00 5.000000000000000e-01
1.000000000000000e+00 0.000000000000000e+00 5.000000000000000e-01
1.000000000000000e+00 5.000000000000000e-01 5.000000000000000e-01
5.000000000000000e-01 5.000000000000000e-01 5.000000000000000e-01
5.000000000000000e-01 5.000000000000000e-01 0.000000000000000e+00
1.000000000000000e+00 5.000000000000000e-01 0.000000000000000e+00
1.000000000000000e+00 1.000000000000000e+00 0.000000000000000e+00
5.000000000000000e-01 1.000000000000000e+00 0.000000000000000e+00
5.000000000000000e-01 5.000000000000000e-01 5.000000000000000e-01
1.000000000000000e+00 5.000000000000000e-01 5.000000000000000e-01
1.000000000000000e+00 1.000000000000000e+00 5.000000000000000e-01
5.000000000000000e-01 1.000000000000000e+00 5.000000000000000e-01
0.000000000000000e+00 5.000000000000000e-01 0.000000000000000e+00
5.000000000000000e-01 5.000000000000000e-01 0.000000000000000e+00
5.000000000000000e-01 1.000000000000000e+00 0.000000000000000e+00
0.000000000000000e+00 1.000000000000000e+00 0.000000000000000e+00
0.000000000000000e+00 5.000000000000000e-01 5.000000000000000e-01
5.000000000000000e-01 5.000000000000000e-01 5.000000000000000e-01
5.000000000000000e-01 1.000000000000000e+00 5.000000000000000e-01
0.000000000000000e+00 1.000000000000000e+00 5.000000000000000e-01
0.000000000000000e+00 0.000000000000000e+00 5.000000000000000e-01
5.000000000000000e-01 0.000000000000000e+00 5.000000000000000e-01
5.000000000000000e-01 5.000000000000000e-01 5.000000000000000e-01
0.000000000000000e+00 5.000000000000000e-01 5.000000000000000e-01
0.000000000000000e+00 0.000000000000000e+00 1.000000000000000e+00
5.000000000000000e-01 0.000000000000000e+00 1.000000000000000e+00
5.000000000000000e-01 5.000000000000000e-01 1.000000000000000e+00
0.000000000000000e+00 5.000000000000000e-01 1.000000000000000e+00
5.000000000000000e-01 0.000000000000000e+00 5.000000000000000e-01
1.000000000000000e+00 0.000000000000000e+00 5.000000000000000e-01
1.000000000000000e+00 5.000000000000000e-01 5.000000000000000e-01
5.000000000000000e-01 5.000000000000000e-01 5.000000000000000e-01
5.000000000000000e-01 0.000000000000000e+00 1.000000000000000e+00
1.000000000000000e+00 0.000000000000000e+00 1.000000000000000e+00
1.000000000000000e+00 5.000000000000000e-01 1.000000000000000e+00
5.000000000000000e-01 5.000000000000000e-01 1.000000000000000e+00
5.000000000000000e-01 5.000000000000000e-01 5.000000000000000e-01
1.000000000000000e+00 5.000000000000000e-01 5.000000000000000e-01
1.000000000000000e+00 1.000000000000000e+00 5.000000000000000e-01
5.000000000000000e-01 1.000000000000000e+00 5.000000000000000e-01
5.000000000000000e-01 5.000000000000000e-01 1.000000000000000e+00
1.000000000000000e+00 5.000000000000000e-01 1.000000000000000e+00
1.000000000000000e+00 1.000000000000000e+00 1.000000000000000e+00
5.000000000000000e-01 1.000000000000000e+00 1.000000000000000e+00
0.000000000000000e+00 5.000000000000000e-01 5.000000000000000e-01
5.000000000000000e-01 5.000000000000000e-01 5.000000000000000e-01
5.000000000000000e-01 1.000000000000000e+00 5.000000000000000e-01
0.000000000000000e+00 1.000000000000000e+00 5.000000000000000e-01
0.000000000000000e+00 5.000000000000000e-01 1.000000000000000e+00
5.000000000000000e-01 5.000000000000000e-01 1.000000000000000e+00
5.000000000000000e-01 1.000000000000000e+00 1.000000000000000e+00
0.000000000000000e+00 1.000000000000000e+00 1.000000000000000e+00
4.000000000000000e+00 0.000000000000000e+00 0.000000000000000e+00
5.000000000000000e+00 0.000000000000000e+00 0.000000000000000e+00
5.000000000000000e+00 1.000000000000000e+00 0.000000000000000e+00
5.000000000000000e+00 0.000000000000000e+00 1.000000000000000e+00
4.500000000000000e+00 0.000000000000000e+00 0.000000000000000e+00
5.000000000000000e+00 5.000000000000000e-01 0.000000000000000e+00
4.500000000000000e+00 5.000000000000000e-01 0.000000000000000e+00
4.500000000000000e+00 0.000000000000000e+00 5.000000000000000e-01
5.000000000000000e+00 0.000000000000000e+00 5.000000000000000e-01
5.000000000000000e+00 5.000000000000000e-01 5.000000000000000e-01
4.000000000000000e+00 0.000000000000000e+00 0.000000000000000e+00
5.000000000000000e+00 0.000000000000000e+00 1.000000000000000e+00
4.000000000000000e+00 1.000000000000000e+00 1.000000000000000e+00
4.000000000000000e+00 0.000000000000000e+00 1.000000000000000e+00
4.500000000000000e+00 0.000000000000000e+00 5.000000000000000e-01
4.500000000000000e+00 5.000000000000000e-01 1.000000000000000e+00
4.000000000000000e+00 5.000000000000000e-01 5.000000000000000e-01
4.000000000000000e+00 0.000000000000000e+00 5.000000000000000e-01
4.500000000000000e+00 0.000000000000000e+00 1.000000000000000e+00
4.000000000000000e+00 5.000000000000000e-01 1.000000000000000e+00
4.000000000000000e+00 0.000000000000000e+00 0.000000000000000e+00
5.000000000000000e+00 1.000000000000000e+00 0.000000000000000e+00
4.000000000000000e+00 1.000000000000000e+00 1.000000000000000e+00
5.000000000000000e+00 0.000000000000000e+00 1.000000000000000e+00
4.500000000000000e+00 5.000000000000000e-01 0.000000000000000e+00
4.500000000000000e+00 1.000000000000000e+00 5.000000000000000e-01
4.000000000000000e+00 5.000000000000000e-01 5.000000000000000e-01
4.500000000000000e+00 0.000000000000000e+00 5.000000000000000e-01
5.000000000000000e+00 5.000000000000000e-01 5.000000000000000e-01
4.500000000000000e+00 5.000000000000000e-01 1.000000000000000e+00
        </DataArray>
      </Points>

      <Cells>
        <DataArray type="Int32" Name="connectivity" format="ascii">
0 1 2 3 4 5 6 7 8 9 10 11 12 13 14 15 16 17 18 19 20 21 22 23 24 25 26 27 28 29 30 31 32 33 34 35 36 37 38 39 40 41 42 43 44 45 46 47 48 49 50 51 52 53 54 55 56 57 58 59 60 61 62 63 64 65 66 67 68 69 70 71 72 73 74 75 76 77 78 79 80 81 82 83 84 85 86 87 88 89 90 91 92 93 
        </DataArray>
        <DataArray type="Int32" Name="offsets" format="ascii">
8 16 24 32 40 48 56 64 74 84 94 
        </DataArray>
        <DataArray type="UInt8" Name="types" format="ascii">
12 12 12 12 12 12 12 12 24 24 24 
        </DataArray>
      </Cells>

  <PointData>
        <DataArray type="Float64" Name="displacement" NumberOfComponents="3" format="ascii">
-9.578335174529223e-02 -9.578335174529232e-02 -1.502580113743724e-01
-7.288386511332741e-02 -7.292505835172416e-02 -1.001656467114656e-01
-5.000798583831544e-02 -5.000798583831547e-02 -5.001145722794555e-02
-7.292505835172410e-02 -7.288386511332748e-02 -1.001656467114655e-01
-1.462014368658668e-01 -1.462014368658670e-01 -1.047389952768328e-01
-1.232637091288319e-01 -1.233193982435123e-01 -5.453988478031391e-02
-1.003697267228470e-01 -1.003697267228472e-01 -4.299430223684584e-03
-1.233193982435122e-01 -1.232637091288320e-01 -5.453988478031381e-02
-7.288386511332741e-02 -7.292505835172416e-02 -1.001656467114656e-01
-4.998542035987230e-02 -5.003094914500286e-02 -5.004530092080268e-02
-2.709215024393482e-02 -2.709892472622299e-02 1.656507658077091e-04
-5.000798583831544e-02 -5.000798583831547e-02 -5.001145722794555e-02
-1.232637091288319e-01 -1.233193982435123e-01 -5.453988478031391e-02
-1.003283903897233e-01 -1.004150516836690e-01 -4.325439837284030e-03
-7.742269257696381e-02 -7.745610434250599e-02 4.595127173728421e-02
-1.003697267228470e-01 -1.003697267228472e-01 -4.299430223684584e-03
-5.000798583831544e-02 -5.000798583831547e-02 -5.001145722794555e-02
-2.709215024393482e-02 -2.709892472622299e-02 1.656507658077091e-04
-4.168338526151886e-03 -4.168338526151868e-03 5.039442591039613e-02
-2.709892472622297e-02 -2.709215024393482e-02 1.656507658077716e-04
-1.003697267228470e-01 -1.003697267228472e-01 -4.299430223684584e-03
-7.742269257696381e-02 -7.745610434250599e-02 4.595127173728421e-02
-5.450001796708564e-02 -5.450001796708571e-02 9.623311848353849e-02
-7.745610434250592e-02 -7.742269257696385e-02 4.595127173728435e-02
-7.292505835172410e-02 -7.288386511332748e-02 -1.001656467114655e-01
-5.000798583831544e-02 -5.000798583831547e-02 -5.001145722794555e-02
-2.709892472622297e-02 -2.709215024393482e-02 1.656507658077716e-04
-5.003094914500283e-02 -4.998542035987226e-02 -5.004530092080245e-02
-1.233193982435122e-01 -1.232637091288320e-01 -5.453988478031381e-02
-1.003697267228470e-01 -1.003697267228472e-01 -4.299430223684584e-03
-7.745610434250592e-02 -7.742269257696385e-02 4.595127173728435e-02
-1.004150516836688e-01 -1.003283903897234e-01 -4.325439837283789e-03
-1.462014368658668e-01 -1.462014368658670e-01 -1.047389952768328e-01
-1.232637091288319e-01 -1.233193982435123e-01 -5.453988478031391e-02
-1.003697267228470e-01 -1.003697267228472e-01 -4.299430223684584e-03
-1.233193982435122e-01 -1.232637091288320e-01 -5.453988478031381e-02
-1.966264842608750e-01 -1.966264842608752e-01 -5.901081187424955e-02
-1.736623632894724e-01 -1.737180736188084e-01 -8.772053955752514e-03
-1.507475912857382e-01 -1.507475912857384e-01 4.148754763937587e-02
-1.737180736188082e-01 -1.736623632894726e-01 -8.772053955752417e-03
-1.232637091288319e-01 -1.233193982435123e-01 -5.453988478031391e-02
-1.003283903897233e-01 -1.004150516836690e-01 -4.325439837284030e-03
-7.742269257696381e-02 -7.745610434250599e-02 4.595127173728421e-02
-1.003697267228470e-01 -1.003697267228472e-01 -4.299430223684584e-03
-1.736623632894724e-01 -1.737180736188084e-01 -8.772053955752514e-03
-1.507019925401815e-01 -1.508007961539587e-01 4.146944893187263e-02
-1.277811294161777e-01 -1.278266705446840e-01 9.174476176648175e-02
-1.507475912857382e-01 -1.507475912857384e-01 4.148754763937587e-02
-1.003697267228470e-01 -1.003697267228472e-01 -4.299430223684584e-03
-7.742269257696381e-02 -7.745610434250599e-02 4.595127173728421e-02
-5.450001796708564e-02 -5.450001796708571e-02 9.623311848353849e-02
-7.745610434250592e-02 -7.742269257696385e-02 4.595127173728435e-02
-1.507475912857382e-01 -1.507475912857384e-01 4.148754763937587e-02
-1.277811294161777e-01 -1.278266705446840e-01 9.174476176648175e-02
-1.048568198806431e-01 -1.048568198806434e-01 1.420125366224988e-01
-1.278266705446837e-01 -1.277811294161779e-01 9.174476176648191e-02
-1.233193982435122e-01 -1.232637091288320e-01 -5.453988478031381e-02
-1.003697267228470e-01 -1.003697267228472e-01 -4.299430223684584e-03
-7.745610434250592e-02 -7.742269257696385e-02 4.595127173728435e-02
-1.004150516836688e-01 -1.003283903897234e-01 -4.325439837283789e-03
-1.737180736188082e-01 -1.736623632894726e-01 -8.772053955752417e-03
-1.507475912857382e-01 -1.507475912857384e-01 4.148754763937587e-02
-1.278266705446837e-01 -1.277811294161779e-01 9.174476176648191e-02
-1.508007961539585e-01 -1.507019925401817e-01 4.146944893187263e-02
-9.577248959234347e-02 -9.577248959235740e-02 -1.502608486001936e-01
-4.997613221407980e-02 -5.003293588303755e-02 -5.003831547934162e-02
-4.188733503350766e-03 -4.188733503336882e-03 5.037095490137425e-02
-1.506914293046558e-01 -1.507934572133350e-01 4.146912462273105e-02
-7.287402865323707e-02 -7.291522765737342e-02 -1.001650456746756e-01
-2.709619277225925e-02 -2.710906569896071e-02 1.703181917172005e-04
-5.000274260908251e-02 -5.000274260908254e-02 -5.000527251704251e-02
-1.232555675123782e-01 -1.233116761549893e-01 -5.452869901507419e-02
-1.003207914223757e-01 -1.004038420199142e-01 -4.337733588315003e-03
-7.742110378804483e-02 -7.744553123761519e-02 4.592961047603038e-02
-9.577248959234347e-02 -9.577248959235740e-02 -1.502608486001936e-01
-1.506914293046558e-01 -1.507934572133350e-01 4.146912462273105e-02
-1.507934572133477e-01 -1.506914293046521e-01 4.146912462273497e-02
-1.966195876806231e-01 -1.966195876806292e-01 -5.901650083860951e-02
-1.232555675123782e-01 -1.233116761549893e-01 -5.452869901507419e-02
-1.507407465125515e-01 -1.507407465125433e-01 4.149365219927532e-02
-1.233116761549886e-01 -1.232555675123834e-01 -5.452869901507230e-02
-1.461995894592583e-01 -1.461995894592682e-01 -1.047106110716188e-01
-1.736545499394225e-01 -1.737117359384744e-01 -8.780039144035145e-03
-1.737117359384779e-01 -1.736545499394236e-01 -8.780039144033212e-03
-9.577248959234347e-02 -9.577248959235740e-02 -1.502608486001936e-01
-4.188733503350766e-03 -4.188733503336882e-03 5.037095490137425e-02
-1.507934572133477e-01 -1.506914293046521e-01 4.146912462273497e-02
-1.506914293046558e-01 -1.507934572133350e-01 4.146912462273105e-02
-5.000274260908251e-02 -5.000274260908254e-02 -5.000527251704251e-02
-7.744553123762847e-02 -7.742110378803595e-02 4.592961047603231e-02
-1.233116761549886e-01 -1.232555675123834e-01 -5.452869901507230e-02
-1.232555675123782e-01 -1.233116761549893e-01 -5.452869901507419e-02
-7.742110378804483e-02 -7.744553123761519e-02 4.592961047603038e-02
-1.507407465125515e-01 -1.507407465125433e-01 4.149365219927532e-02
        </DataArray>
        <DataArray type="Float64" Name="nodal_2PK_stresses_xyz" NumberOfComponents="6" format="ascii">
-8.881676485881922e-02 -8.881676485659265e-02 3.097857870745819e+00 -3.949240652671046e-01 4.002737590161362e-01 4.002737590158690e-01
-2.563379500183446e-01 -1.451161348396356e-01 1.812988361045511e+00 -3.210738378500391e-01 4.220287777619127e-01 4.982583681265137e-01
-2.926997824964344e-01 -2.926997824985551e-01 6.360766395925584e-01 -2.509156911296552e-01 4.917590165361735e-01 4.917590165364666e-01
-1.451161348418048e-01 -2.563379500198663e-01 1.812988361045979e+00 -3.210738378505014e-01 4.982583681259354e-01 4.220287777619550e-01
2.201981572982716e-01 2.201981572964616e-01 2.522218728412498e+00 -6.909546194608480e-02 1.593112797043138e-01 1.593112797045878e-01
7.306951467580410e-02 1.504641045719133e-01 1.587825729244734e+00 -2.354165516475892e-02 1.593586474793101e-01 2.327733156094998e-01
2.321270207023804e-02 2.321270207129862e-02 7.619075696083476e-01 1.827958902590173e-02 2.044478428967311e-01 2.044478428961198e-01
1.504641045712823e-01 7.306951467401722e-02 1.587825729244066e+00 -2.354165516474818e-02 2.327733156093274e-01 1.593586474791795e-01
-2.563379500183446e-01 -1.451161348396356e-01 1.812988361045511e+00 -3.210738378500391e-01 4.220287777619127e-01 4.982583681265137e-01
-3.900069442916738e-01 -1.751423952911794e-01 6.352503055971487e-01 -2.572039420490567e-01 5.006269811778872e-01 5.451068037668402e-01
-4.062855085502786e-01 -3.026847811689478e-01 -4.328686873763712e-01 -1.907567477635296e-01 5.420783037243521e-01 5.102176738775320e-01
-2.926997824964344e-01 -2.926997824985551e-01 6.360766395925584e-01 -2.509156911296552e-01 4.917590165361735e-01 4.917590165364666e-01
7.306951467580410e-02 1.504641045719133e-01 1.587825729244734e+00 -2.354165516475892e-02 1.593586474793101e-01 2.327733156094998e-01
-4.030714518089580e-02 1.069438200119459e-01 7.610805505115676e-01 1.202816970216796e-02 2.163364494469876e-01 2.550353303625083e-01
-7.013896916455292e-02 -3.233900677052162e-04 4.437549845500909e-02 5.009738976084431e-02 2.330400175057148e-01 1.982429267973933e-01
2.321270207023804e-02 2.321270207129862e-02 7.619075696083476e-01 1.827958902590173e-02 2.044478428967311e-01 2.044478428961198e-01
-2.926997824964344e-01 -2.926997824985551e-01 6.360766395925584e-01 -2.509156911296552e-01 4.917590165361735e-01 4.917590165364666e-01
-4.062855085502786e-01 -3.026847811689478e-01 -4.328686873763712e-01 -1.907567477635296e-01 5.420783037243521e-01 5.102176738775320e-01
-3.961056567527839e-01 -3.961056567532236e-01 -1.392291926696033e+00 -1.343340862902456e-01 5.321321791137889e-01 5.321321791147496e-01
-3.026847811729105e-01 -4.062855085527808e-01 -4.328686873820377e-01 -1.907567477627284e-01 5.102176738776278e-01 5.420783037234119e-01
2.321270207023804e-02 2.321270207129862e-02 7.619075696083476e-01 1.827958902590173e-02 2.044478428967311e-01 2.044478428961198e-01
-7.013896916455292e-02 -3.233900677052162e-04 4.437549845500909e-02 5.009738976084431e-02 2.330400175057148e-01 1.982429267973933e-01
-7.356515240941355e-02 -7.356515240835117e-02 -5.633112978916616e-01 7.813724783885001e-02 1.983650533210689e-01 1.983650533212732e-01
-3.233900674790230e-04 -7.013896916561302e-02 4.437549845392380e-02 5.009738976072037e-02 1.982429267971577e-01 2.330400175066789e-01
-1.451161348418048e-01 -2.563379500198663e-01 1.812988361045979e+00 -3.210738378505014e-01 4.982583681259354e-01 4.220287777619550e-01
-2.926997824964344e-01 -2.926997824985551e-01 6.360766395925584e-01 -2.509156911296552e-01 4.917590165361735e-01 4.917590165364666e-01
-3.026847811729105e-01 -4.062855085527808e-01 -4.328686873820377e-01 -1.907567477627284e-01 5.102176738776278e-01 5.420783037234119e-01
-1.751423952844673e-01 -3.900069442877860e-01 6.352503056002019e-01 -2.572039420484176e-01 5.451068037665781e-01 5.006269811772821e-01
1.504641045712823e-01 7.306951467401722e-02 1.587825729244066e+00 -2.354165516474818e-02 2.327733156093274e-01 1.593586474791795e-01
2.321270207023804e-02 2.321270207129862e-02 7.619075696083476e-01 1.827958902590173e-02 2.044478428967311e-01 2.044478428961198e-01
-3.233900674790230e-04 -7.013896916561302e-02 4.437549845392380e-02 5.009738976072037e-02 1.982429267971577e-01 2.330400175066789e-01
1.069438200082731e-01 -4.030714518086183e-02 7.610805505158841e-01 1.202816970137731e-02 2.550353303630144e-01 2.163364494470209e-01
2.201981572982716e-01 2.201981572964616e-01 2.522218728412498e+00 -6.909546194608480e-02 1.593112797043138e-01 1.593112797045878e-01
7.306951467580410e-02 1.504641045719133e-01 1.587825729244734e+00 -2.354165516475892e-02 1.593586474793101e-01 2.327733156094998e-01
2.321270207023804e-02 2.321270207129862e-02 7.619075696083476e-01 1.827958902590173e-02 2.044478428967311e-01 2.044478428961198e-01
1.504641045712823e-01 7.306951467401722e-02 1.587825729244066e+00 -2.354165516474818e-02 2.327733156093274e-01 1.593586474791795e-01
1.832483667968795e-01 1.832483667971456e-01 1.774280878371172e+00 9.797663083164040e-03 1.979954247807574e-01 1.979954247801004e-01
5.599508395873549e-02 9.910277200425813e-02 1.189496268453320e+00 2.677350339662874e-02 1.764408167894904e-01 2.471518099859615e-01
-8.250845804888813e-03 -8.250845807146599e-03 7.138943406831131e-01 4.002260797948654e-02 1.970590074416480e-01 1.970590074421620e-01
9.910277200423506e-02 5.599508396107967e-02 1.189496268453268e+00 2.677350339654385e-02 2.471518099866232e-01 1.764408167899827e-01
7.306951467580410e-02 1.504641045719133e-01 1.587825729244734e+00 -2.354165516475892e-02 1.593586474793101e-01 2.327733156094998e-01
-4.030714518089580e-02 1.069438200119459e-01 7.610805505115676e-01 1.202816970216796e-02 2.163364494469876e-01 2.550353303625083e-01
-7.013896916455292e-02 -3.233900677052162e-04 4.437549845500909e-02 5.009738976084431e-02 2.330400175057148e-01 1.982429267973933e-01
2.321270207023804e-02 2.321270207129862e-02 7.619075696083476e-01 1.827958902590173e-02 2.044478428967311e-01 2.044478428961198e-01
5.599508395873549e-02 9.910277200425813e-02 1.189496268453320e+00 2.677350339662874e-02 1.764408167894904e-01 2.471518099859615e-01
-3.749101255529096e-02 4.120266748254088e-02 7.130422738847321e-01 3.376635538223169e-02 2.118857060460788e-01 2.449844476974507e-01
-8.168727439516131e-02 -4.614084495195939e-02 3.472656503498185e-01 4.326878929337164e-02 2.039644766973619e-01 1.663002795754715e-01
-8.250845804888813e-03 -8.250845807146599e-03 7.138943406831131e-01 4.002260797948654e-02 1.970590074416480e-01 1.970590074421620e-01
2.321270207023804e-02 2.321270207129862e-02 7.619075696083476e-01 1.827958902590173e-02 2.044478428967311e-01 2.044478428961198e-01
-7.013896916455292e-02 -3.233900677052162e-04 4.437549845500909e-02 5.009738976084431e-02 2.330400175057148e-01 1.982429267973933e-01
-7.356515240941355e-02 -7.356515240835117e-02 -5.633112978916616e-01 7.813724783885001e-02 1.983650533210689e-01 1.983650533212732e-01
-3.233900674790230e-04 -7.013896916561302e-02 4.437549845392380e-02 5.009738976072037e-02 1.982429267971577e-01 2.330400175066789e-01
-8.250845804888813e-03 -8.250845807146599e-03 7.138943406831131e-01 4.002260797948654e-02 1.970590074416480e-01 1.970590074421620e-01
-8.168727439516131e-02 -4.614084495195939e-02 3.472656503498185e-01 4.326878929337164e-02 2.039644766973619e-01 1.663002795754715e-01
-9.943911754549593e-02 -9.943911754708755e-02 9.099809761277000e-02 4.274188491549247e-02 1.446230323932502e-01 1.446230323935754e-01
-4.614084495212509e-02 -8.168727439287138e-02 3.472656503506317e-01 4.326878929348323e-02 1.663002795757291e-01 2.039644766965550e-01
1.504641045712823e-01 7.306951467401722e-02 1.587825729244066e+00 -2.354165516474818e-02 2.327733156093274e-01 1.593586474791795e-01
2.321270207023804e-02 2.321270207129862e-02 7.619075696083476e-01 1.827958902590173e-02 2.044478428967311e-01 2.044478428961198e-01
-3.233900674790230e-04 -7.013896916561302e-02 4.437549845392380e-02 5.009738976072037e-02 1.982429267971577e-01 2.330400175066789e-01
1.069438200082731e-01 -4.030714518086183e-02 7.610805505158841e-01 1.202816970137731e-02 2.550353303630144e-01 2.163364494470209e-01
9.910277200423506e-02 5.599508396107967e-02 1.189496268453268e+00 2.677350339654385e-02 2.471518099866232e-01 1.764408167899827e-01
-8.250845804888813e-03 -8.250845807146599e-03 7.138943406831131e-01 4.002260797948654e-02 1.970590074416480e-01 1.970590074421620e-01
-4.614084495212509e-02 -8.168727439287138e-02 3.472656503506317e-01 4.326878929348323e-02 1.663002795757291e-01 2.039644766965550e-01
4.120266748387724e-02 -3.749101255393678e-02 7.130422738816942e-01 3.376635538173791e-02 2.449844476966991e-01 2.118857060447914e-01
-1.651101326276527e-01 -1.651101326283254e-01 3.133443438547946e+00 -2.598738651250087e-01 2.414201221516242e-01 2.414201221515929e-01
-2.008145179390430e-01 -1.336346779973267e-01 7.703455705025546e-01 -1.660287169235881e-01 2.434442145164910e-01 2.406431353379305e-01
-2.454923233549074e-01 -2.454923233544977e-01 -1.544404173486242e+00 -1.641371048986879e-01 3.021480999647845e-01 3.021480999650670e-01
9.116726719580684e-02 1.229121025292784e-01 7.252328720956782e-01 1.167163605212849e-01 3.036817537455287e-01 3.077079771471996e-01
-2.267379556425924e-01 -1.576717378684962e-01 1.810781922741709e+00 -2.162518826437892e-01 2.457210310182354e-01 3.061006136277564e-01
-1.934702914514093e-01 -2.515268342191270e-01 -2.632848285865464e-01 -1.933064516062119e-01 3.125877768256021e-01 2.477967311459020e-01
-2.527166252585743e-01 -2.527166252588285e-01 7.778075289383668e-01 -2.402967604081433e-01 3.187241013258783e-01 3.187241013258177e-01
-1.472604820514602e-02 -2.873588102640025e-03 1.883937542417042e+00 -4.374035147218747e-02 2.313682709405945e-01 2.753644815801832e-01
-1.196591980748018e-02 2.968440597329856e-02 7.627364845839663e-01 7.434940102963481e-03 2.468309570596849e-01 2.429994995596833e-01
-3.170380265314227e-02 -6.137272861428954e-02 -3.528215550842395e-01 -2.223419358271402e-02 3.050012632811747e-01 2.636479988784088e-01
-1.651101326276527e-01 -1.651101326283254e-01 3.133443438547946e+00 -2.598738651250087e-01 2.414201221516242e-01 2.414201221515929e-01
9.116726719580684e-02 1.229121025292784e-01 7.252328720956782e-01 1.167163605212849e-01 3.036817537455287e-01 3.077079771471996e-01
1.229121025280946e-01 9.116726719516668e-02 7.252328720955945e-01 1.167163605207952e-01 3.077079771469988e-01 3.036817537454071e-01
-3.887972104252488e-02 -3.887972104216528e-02 1.354856404339531e+00 5.433918819780210e-02 2.908974147824113e-01 2.908974147835235e-01
-1.472604820514602e-02 -2.873588102640025e-03 1.883937542417042e+00 -4.374035147218747e-02 2.313682709405945e-01 2.753644815801832e-01
8.107188510531743e-02 8.107188510512177e-02 7.152680299062020e-01 9.532228165162158e-02 3.249975600309657e-01 3.249975600305514e-01
-2.873588102612797e-03 -1.472604820544430e-02 1.883937542417609e+00 -4.374035147216258e-02 2.753644815801248e-01 2.313682709405322e-01
-3.066473871141233e-02 -3.066473871168825e-02 2.567257398512405e+00 -1.087906880376788e-01 1.725901367636873e-01 1.725901367647370e-01
-4.826906965945431e-02 1.258091615384068e-02 7.460078784793476e-01 1.093227792373864e-01 3.146294614911846e-01 3.833511954138614e-01
1.258091615360818e-02 -4.826906965922181e-02 7.460078784806186e-01 1.093227792369831e-01 3.833511954137413e-01 3.146294614909325e-01
-1.651101326276527e-01 -1.651101326283254e-01 3.133443438547946e+00 -2.598738651250087e-01 2.414201221516242e-01 2.414201221515929e-01
-2.454923233549074e-01 -2.454923233544977e-01 -1.544404173486242e+00 -1.641371048986879e-01 3.021480999647845e-01 3.021480999650670e-01
1.229121025280946e-01 9.116726719516668e-02 7.252328720955945e-01 1.167163605207952e-01 3.077079771469988e-01 3.036817537454071e-01
9.116726719580684e-02 1.229121025292784e-01 7.252328720956782e-01 1.167163605212849e-01 3.036817537455287e-01 3.077079771471996e-01
-2.527166252585743e-01 -2.527166252588285e-01 7.778075289383668e-01 -2.402967604081433e-01 3.187241013258783e-01 3.187241013258177e-01
-6.137272861553612e-02 -3.170380265335306e-02 -3.528215550847749e-01 -2.223419358314985e-02 2.636479988778914e-01 3.050012632816136e-01
-2.873588102612797e-03 -1.472604820544430e-02 1.883937542417609e+00 -4.374035147216258e-02 2.753644815801248e-01 2.313682709405322e-01
-1.472604820514602e-02 -2.873588102640025e-03 1.883937542417042e+00 -4.374035147218747e-02 2.313682709405945e-01 2.753644815801832e-01
-3.170380265314227e-02 -6.137272861428954e-02 -3.528215550842395e-01 -2.223419358271402e-02 3.050012632811747e-01 2.636479988784088e-01
8.107188510531743e-02 8.107188510512177e-02 7.152680299062020e-01 9.532228165162158e-02 3.249975600309657e-01 3.249975600305514e-01
        </DataArray>
        <DataArray type="Float64" Name="nodal_GL_strains_xyz" NumberOfComponents="6" format="ascii">
-3.366964773859011e-04 -3.366964773847584e-04 1.260296643770564e-03 -1.972738390060748e-04 2.005995842557354e-04 2.005995842556014e-04
-2.692725939022338e-04 -2.137454342370789e-04 7.665373008595457e-04 -1.603601418402586e-04 2.112712896925586e-04 2.494158882979176e-04
-1.512942178161246e-04 -1.512942178171412e-04 3.131478441010024e-04 -1.252967496223189e-04 2.459276784054145e-04 2.459276784055613e-04
-2.137454342378074e-04 -2.692725939026044e-04 7.665373008601829e-04 -1.603601418404893e-04 2.494158882976280e-04 2.112712896925793e-04
-1.864410636179435e-04 -1.864410636187501e-04 9.672136813918159e-04 -3.452230051789190e-05 7.974462658816667e-05 7.974462658830429e-05
-1.446781883985525e-04 -1.060069915898136e-04 6.136620886270725e-04 -1.175127370618660e-05 7.976828719359922e-05 1.165105226141732e-04
-6.922775640001350e-05 -6.922775639945520e-05 3.002736930106378e-04 9.152999393068242e-06 1.023028491879275e-04 1.023028491876216e-04
-1.060069915897194e-04 -1.446781883991617e-04 6.136620886270197e-04 -1.175127370618131e-05 1.165105226140868e-04 7.976828719353375e-05
-2.692725939022338e-04 -2.137454342370789e-04 7.665373008595457e-04 -1.603601418402586e-04 2.112712896925586e-04 2.494158882979176e-04
-2.018487104164934e-04 -9.449538671926452e-05 3.108166829068859e-04 -1.284164634836303e-04 2.503875216458105e-04 2.725813066326029e-04
-8.884300139730563e-05 -3.703849695488801e-05 -1.021533139190580e-04 -9.521703401659094e-05 2.708721614593667e-04 2.549209892859503e-04
-1.512942178161246e-04 -1.512942178171412e-04 3.131478441010024e-04 -1.252967496223189e-04 2.459276784054145e-04 2.459276784055613e-04
-1.446781883985525e-04 -1.060069915898136e-04 6.136620886270725e-04 -1.175127370618660e-05 7.976828719359922e-05 1.165105226141732e-04
-1.029153131785839e-04 -2.930767479244767e-05 2.979315297511392e-04 6.037907094861952e-06 1.082616574723059e-04 1.276025514337494e-04
-3.244852121033788e-05 2.466614060941226e-06 2.479724186539071e-05 2.506279691188257e-05 1.165579954037055e-04 9.915458698419730e-05
-6.922775640001350e-05 -6.922775639945520e-05 3.002736930106378e-04 9.152999393068242e-06 1.023028491879275e-04 1.023028491876216e-04
-1.512942178161246e-04 -1.512942178171412e-04 3.131478441010024e-04 -1.252967496223189e-04 2.459276784054145e-04 2.459276784055613e-04
-8.884300139730563e-05 -3.703849695488801e-05 -1.021533139190580e-04 -9.521703401659094e-05 2.708721614593667e-04 2.549209892859503e-04
2.041839280769362e-05 2.041839280743073e-05 -4.770039986658298e-04 -6.701407615678333e-05 2.656818723909254e-04 2.656818723914054e-04
-3.703849695572624e-05 -8.884300139737900e-05 -1.021533139208683e-04 -9.521703401619034e-05 2.549209892859970e-04 2.708721614588951e-04
-6.922775640001350e-05 -6.922775639945520e-05 3.002736930106378e-04 9.152999393068242e-06 1.023028491879275e-04 1.023028491876216e-04
-3.244852121033788e-05 2.466614060941226e-06 2.479724186539071e-05 2.506279691188257e-05 1.165579954037055e-04 9.915458698419730e-05
3.424090291740904e-05 3.424090291796570e-05 -2.103525798914704e-04 3.908145709182774e-05 9.916291836322314e-05 9.916291836332565e-05
2.466614061281502e-06 -3.244852121066375e-05 2.479724186510496e-05 2.506279691182062e-05 9.915458698407942e-05 1.165579954041875e-04